chemcompute.org
{'UTCtimestamp': '2022-10-03T21:22:36.107790', 'cluster': 'jetstream2', 'clusterJobNumber': '120478', 'status': 'RUNNING', 'nodeList': 'chemcompute-node-1'}
----- GAMESS execution script 'rungms' -----
This job is running on host chemcompute-node-1.novalocal
under operating system Linux at Mon Oct 3 21:22:39 UTC 2022
SLURM has assigned the following compute nodes to this run:
Available scratch disk space (Kbyte units) at beginning of the job is
Filesystem     1K-blocks     Used Available Use% Mounted on
/dev/sda1       62903276 11504512  51398764  19% /
GAMESS temporary binary files will be written to /scratch/120478
GAMESS supplementary output files will be written to /data/slurm/46/460047
Copying input file 460047.inp to your run's scratch directory...
The generated host list is
chemcompute-node-1.novalocal

 Distributed Data Interface kickoff program.
 Initiating 1 compute processes on 1 nodes to run the following command:
 /data/gamess-2019R1-avx2-ddi/gamess.00.x 460047 

          ******************************************************
          *         GAMESS VERSION = 30 JUN 2019 (R1)          *
          *             FROM IOWA STATE UNIVERSITY             *
          * M.W.SCHMIDT, K.K.BALDRIDGE, J.A.BOATZ, S.T.ELBERT, *
          *   M.S.GORDON, J.H.JENSEN, S.KOSEKI, N.MATSUNAGA,   *
          *          K.A.NGUYEN, S.J.SU, T.L.WINDUS,           *
          *       TOGETHER WITH M.DUPUIS, J.A.MONTGOMERY       *
          *         J.COMPUT.CHEM.  14, 1347-1363(1993)        *
          **************** 64 BIT INTEL VERSION ****************

  SINCE 1993, STUDENTS AND POSTDOCS WORKING AT IOWA STATE UNIVERSITY
  AND ALSO IN THEIR VARIOUS JOBS AFTER LEAVING ISU HAVE MADE IMPORTANT
  CONTRIBUTIONS TO THE CODE:
     IVANA ADAMOVIC, CHRISTINE AIKENS, YURI ALEXEEV, POOJA ARORA,
     ANDREY ASADCHEV, ROB BELL, PRADIPTA BANDYOPADHYAY, JONATHAN BENTZ,
     COLLEEN BERTONI, BRETT BODE, KURT BRORSEN, CALEB CARLIN, GALINA CHABAN,
     WEI CHEN, CHEOL HO CHOI, PAUL DAY, ALBERT DEFUSCO, NUWAN DESILVA,
     TIM DUDLEY, DMITRI FEDOROV, ALEX FINDLATER, GRAHAM FLETCHER, 
     MARK FREITAG, KURT GLAESEMANN, ANASTASIA GUNINA,
     DAN KEMP, GRANT MERRILL, NORIYUKI MINEZAWA, JONATHAN MULLIN,
     TAKESHI NAGATA, SEAN NEDD, HEATHER NETZLOFF, BOSILJKA NJEGIC, RYAN OLSON,
     MIKE PAK, BUU PHAM,
     SPENCER PRUITT, LUKE ROSKOP, JIM SHOEMAKER, LYUDMILA SLIPCHENKO,
     TONY SMITH, SAROM SOK LEANG, JIE SONG, TETSUYA TAKETSUGU, SIMON WEBB,
     PENG XU, SOOHAENG YOO, FEDERICO ZAHARIEV

  ADDITIONAL CODE HAS BEEN PROVIDED BY COLLABORATORS IN OTHER GROUPS:
     IOWA STATE UNIVERSITY:
          JOE IVANIC, AARON WEST, LAIMUTIS BYTAUTAS, KLAUS RUEDENBERG
     UNIVERSITY OF TOKYO: KIMIHIKO HIRAO, TAKAHITO NAKAJIMA,
          TAKAO TSUNEDA, MUNEAKI KAMIYA, SUSUMU YANAGISAWA,
          KIYOSHI YAGI, MAHITO CHIBA, SEIKEN TOKURA, NAOAKI KAWAKAMI
     UNIVERSITY OF AARHUS: FRANK JENSEN
     UNIVERSITY OF IOWA: VISVALDAS KAIRYS, HUI LI
     NATIONAL INST. OF STANDARDS AND TECHNOLOGY: WALT STEVENS, DAVID GARMER
     UNIVERSITY OF PISA: BENEDETTA MENNUCCI, JACOPO TOMASI
     UNIVERSITY OF MEMPHIS: HENRY KURTZ, PRAKASHAN KORAMBATH
     UNIVERSITY OF ALBERTA: TOBY ZENG, MARIUSZ KLOBUKOWSKI
     UNIVERSITY OF NEW ENGLAND: MARK SPACKMAN
     MIE UNIVERSITY: HIROAKI UMEDA
     NAT. INST. OF ADVANCED INDUSTRIAL SCIENCE AND TECHNOLOGY: KAZUO KITAURA
     MICHIGAN STATE UNIVERSITY:
          KAROL KOWALSKI, MARTA WLOCH, JEFFREY GOUR, JESSE LUTZ,
          WEI LI, JUN SHEN, J. EMILIANO DEUSTUA, PIOTR PIECUCH
     UNIVERSITY OF MINNESOTA:
          YINAN SHU
     UNIVERSITY OF SILESIA: MONIKA MUSIAL, STANISLAW KUCHARSKI
     FACULTES UNIVERSITAIRES NOTRE-DAME DE LA PAIX:
          OLIVIER QUINET, BENOIT CHAMPAGNE
     UNIVERSITY OF CALIFORNIA - SANTA BARBARA: BERNARD KIRTMAN
     INSTITUTE FOR MOLECULAR SCIENCE:
          KAZUYA ISHIMURA, MICHIO KATOUDA, AND SHIGERU NAGASE
     UNIVERSITY OF NOTRE DAME: ANNA POMOGAEVA, DAN CHIPMAN
     KYUSHU UNIVERSITY:
          HARUYUKI NAKANO,
          FENG LONG GU, JACEK KORCHOWIEC, MARCIN MAKOWSKI, AND YURIKO AOKI,
          HIROTOSHI MORI AND EISAKU MIYOSHI
     PENNSYLVANIA STATE UNIVERSITY:
          TZVETELIN IORDANOV, CHET SWALINA, JONATHAN SKONE,
          SHARON HAMMES-SCHIFFER
     WASEDA UNIVERSITY:
          MASATO KOBAYASHI, TOMOKO AKAMA, TSUGUKI TOUMA,
          TAKESHI YOSHIKAWA, YASUHIRO IKABATA, JUNJI SEINO,
          YUYA NAKAJIMA, HIROMI NAKAI
     NANJING UNIVERSITY: SHUHUA LI
     UNIVERSITY OF NEBRASKA:
          PEIFENG SU, DEJUN SI, NANDUN THELLAMUREGE, YALI WANG, HUI LI
     UNIVERSITY OF ZURICH: ROBERTO PEVERATI, KIM BALDRIDGE
     N. COPERNICUS UNIVERSITY AND JACKSON STATE UNIVERSITY:
          MARIA BARYSZ
     UNIVERSITY OF COPENHAGEN: Jimmy Kromann, CASPER STEINMANN
     TOKYO INSTITUTE OF TECHNOLOGY: HIROYA NAKATA
     NAGOYA UNIVERSITY: YOSHIO NISHIMOTO, STEPHAN IRLE
     MOSCOW STATE UNIVERSITY: VLADIMIR MIRONOV
     A.N.NESMEYANOV INSTITUTE OF ORGANOELEMENT COMPOUNDS OF RUSSIAN ACADEMY OF SCIENCES:
          IGOR S. GERASIMOV

 EXECUTION OF GAMESS BEGUN Mon Oct  3 21:22:39 2022

            ECHO OF THE FIRST FEW INPUT CARDS -
 INPUT CARD>!                                                                               
 INPUT CARD>!   GAMESS Calculation input file                                               
 INPUT CARD>!                                                                               
 INPUT CARD>!                                                                               
 INPUT CARD> $CONTRL SCFTYP=RHF MAXIT=200 RUNTYP=OPTIMIZE                                   
 INPUT CARD>         COORD=UNIQUE MULT=1                                                    
 INPUT CARD>         ICHARG=0                                                               
 INPUT CARD>         DFTTYP=B3LYP                                                           
 INPUT CARD>         MOLPLT=.FALSE. PLTORB=.FALSE.  $END                                    
 INPUT CARD> $SYSTEM TIMLIM=2879 MWORDS=250  $END                                           
 INPUT CARD>                                                                                
 INPUT CARD> $FORCE METHOD=SEMINUM NVIB=2 $END                                              
 INPUT CARD> $STATPT OPTTOL=0.0005 NSTEP=999 $END                                           
 INPUT CARD> $STATPT IHREP=0 HSSEND=.TRUE.  $END                                            
 INPUT CARD>                                                                                
 INPUT CARD> $DFT    METHOD=GRID  NLEB=590  $END                                            
 INPUT CARD>                                                                                
 INPUT CARD> $BASIS  GBASIS=N31 NGAUSS=6                                                    
 INPUT CARD>         NDFUNC=1   NPFUNC=0  $END                                              
 INPUT CARD>                                                                                
 INPUT CARD> $SCF    DIRSCF=.T. $END                                                        
 INPUT CARD> $GUESS  GUESS=HUCKEL  $END                                                     
 INPUT CARD>                                                                                
 INPUT CARD> $DATA                                                                          
 INPUT CARD>                                                                                
 INPUT CARD>  Cs                                                                            
 INPUT CARD>                                                                                
 INPUT CARD>C     6.0    -1.09     0.62    -0.00                                            
 INPUT CARD>C     6.0    -0.06    -0.48     0.00                                            
 INPUT CARD>N     7.0     1.21    -0.25     0.00                                            
 INPUT CARD>H     1.0    -0.97     1.24    -0.89                                            
 INPUT CARD>H     1.0    -2.09     0.17    -0.00                                            
 INPUT CARD>H     1.0    -0.43    -1.52     0.00                                            
 INPUT CARD>H     1.0     1.41     0.76    -0.00                                            
 INPUT CARD> $END                                                                           
 INPUT CARD>                                                                                
 INPUT CARD>                                                                                
 INPUT CARD>! Customizations after this line are persisted when using Do More Calculations  
  250000000 WORDS OF MEMORY AVAILABLE

     BASIS OPTIONS
     -------------
     GBASIS=N31          IGAUSS=       6      POLAR=POPN31  
     NDFUNC=       1     NFFUNC=       0     DIFFSP=       F
     NPFUNC=       0      DIFFS=       F     BASNAM=        


     RUN TITLE
     ---------
                                                                                 

 THE POINT GROUP OF THE MOLECULE IS CS      
 THE ORDER OF THE PRINCIPAL AXIS IS     0

 ATOM      ATOMIC                      COORDINATES (BOHR)
           CHARGE         X                   Y                   Z
 C           6.0    -2.0598013266        1.1716301124        0.0000000000
 C           6.0    -0.1133835593       -0.9070684741        0.0000000000
 N           7.0     2.2865684451       -0.4724314969        0.0000000000
 H           1.0    -1.8330342081        2.3432602248        1.6818561291
 H           1.0    -1.8330342081        2.3432602248       -1.6818561291
 H           1.0    -3.9495273143        0.3212534179        0.0000000000
 H           1.0    -0.8125821747       -2.8723835013        0.0000000000
 H           1.0     2.6645136427        1.4361917507        0.0000000000

          INTERNUCLEAR DISTANCES (ANGS.)
          ------------------------------

                1 C          2 C          3 N          4 H          5 H     

   1 C       0.0000000    1.5069506 *  2.4590445 *  1.0912836 *  1.0912836 *
   2 C       1.5069506 *  0.0000000    1.2906587 *  2.1397663 *  2.1397663 *
   3 N       2.4590445 *  1.2906587 *  0.0000000    2.7865032 *  2.7865032 *
   4 H       1.0912836 *  2.1397663 *  2.7865032 *  0.0000000    1.7800000 *
   5 H       1.0912836 *  2.1397663 *  2.7865032 *  1.7800000 *  0.0000000  
   6 H       1.0965856 *  2.1315253 *  3.3266199    1.7864490 *  1.7864490 *
   7 H       2.2394642 *  1.1038569 *  2.0742469 *  2.9497966 *  2.9497966 *
   8 H       2.5039169 *  1.9231485 *  1.0296116 *  2.5859041 *  2.5859041 *

                6 H          7 H          8 H     

   1 C       1.0965856 *  2.2394642 *  2.5039169 *
   2 C       2.1315253 *  1.1038569 *  1.9231485 *
   3 N       3.3266199    2.0742469 *  1.0296116 *
   4 H       1.7864490 *  2.9497966 *  2.5859041 *
   5 H       1.7864490 *  2.9497966 *  2.5859041 *
   6 H       0.0000000    2.3689027 *  3.5493802  
   7 H       2.3689027 *  0.0000000    2.9298464 *
   8 H       3.5493802    2.9298464 *  0.0000000  

  * ... LESS THAN  3.000


     ATOMIC BASIS SET
     ----------------
 THE CONTRACTED PRIMITIVE FUNCTIONS HAVE BEEN UNNORMALIZED
 THE CONTRACTED BASIS FUNCTIONS ARE NOW NORMALIZED TO UNITY

  SHELL TYPE  PRIMITIVE        EXPONENT          CONTRACTION COEFFICIENT(S)

 C         

      1   S       1          3047.5248800    0.001834737132
      1   S       2           457.3695180    0.014037322813
      1   S       3           103.9486850    0.068842622264
      1   S       4            29.2101553    0.232184443216
      1   S       5             9.2866630    0.467941348435
      1   S       6             3.1639270    0.362311985337

      2   L       7             7.8682723   -0.119332419775    0.068999066591
      2   L       8             1.8812885   -0.160854151696    0.316423960957
      2   L       9             0.5442493    1.143456437840    0.744308290898

      3   L      10             0.1687145    1.000000000000    1.000000000000

      4   D      11             0.8000000    1.000000000000

 C         

      5   S      12          3047.5248800    0.001834737132
      5   S      13           457.3695180    0.014037322813
      5   S      14           103.9486850    0.068842622264
      5   S      15            29.2101553    0.232184443216
      5   S      16             9.2866630    0.467941348435
      5   S      17             3.1639270    0.362311985337

      6   L      18             7.8682723   -0.119332419775    0.068999066591
      6   L      19             1.8812885   -0.160854151696    0.316423960957
      6   L      20             0.5442493    1.143456437840    0.744308290898

      7   L      21             0.1687145    1.000000000000    1.000000000000

      8   D      22             0.8000000    1.000000000000

 N         

      9   S      23          4173.5114600    0.001834772160
      9   S      24           627.4579110    0.013994627002
      9   S      25           142.9020930    0.068586551812
      9   S      26            40.2343293    0.232240873040
      9   S      27            12.8202129    0.469069948082
      9   S      28             4.3904370    0.360455199063

     10   L      29            11.6263619   -0.114961181702    0.067579743878
     10   L      30             2.7162798   -0.169117478561    0.323907295893
     10   L      31             0.7722184    1.145851947027    0.740895139755

     11   L      32             0.2120315    1.000000000000    1.000000000000

     12   D      33             0.8000000    1.000000000000

 H         

     15   S      34            18.7311370    0.033494604338
     15   S      35             2.8253944    0.234726953484
     15   S      36             0.6401217    0.813757326146

     16   S      37             0.1612778    1.000000000000

 H         

     17   S      38            18.7311370    0.033494604338
     17   S      39             2.8253944    0.234726953484
     17   S      40             0.6401217    0.813757326146

     18   S      41             0.1612778    1.000000000000

 H         

     19   S      42            18.7311370    0.033494604338
     19   S      43             2.8253944    0.234726953484
     19   S      44             0.6401217    0.813757326146

     20   S      45             0.1612778    1.000000000000

 H         

     21   S      46            18.7311370    0.033494604338
     21   S      47             2.8253944    0.234726953484
     21   S      48             0.6401217    0.813757326146

     22   S      49             0.1612778    1.000000000000

 TOTAL NUMBER OF BASIS SET SHELLS             =   22
 NUMBER OF CARTESIAN GAUSSIAN BASIS FUNCTIONS =   55
 NUMBER OF ELECTRONS                          =   24
 CHARGE OF MOLECULE                           =    0
 SPIN MULTIPLICITY                            =    1
 NUMBER OF OCCUPIED ORBITALS (ALPHA)          =   12
 NUMBER OF OCCUPIED ORBITALS (BETA )          =   12
 TOTAL NUMBER OF ATOMS                        =    8
 THE NUCLEAR REPULSION ENERGY IS       70.6515169287

 SELECTED MURRAY-HANDY-LAMING RADIAL GRID

 LEGACY BECKE'S FUZZY CELL METHOD

 SELECTED ORIGINAL BECKE'S PARTITION FUNCTION

     LEBEDEV GRID-BASED DFT OPTIONS
     ------------------------------
     DFTTYP=B3LYP   
     NRAD  =      96     NLEB  =     590
     NRAD0 =      24     NLEB0 =     110
     SWOFF =    5.00E-03 (PURE SCF -> DFT)
     SWITCH=    3.00E-04 (COARSE -> TIGHT GRID)
     THRESH=    0.00E+00 GTHRE=    1.00E+00

 GRIMME'S EMPIRICAL DISPERSION CORRECTION= F

     $CONTRL OPTIONS
     ---------------
 SCFTYP=RHF          RUNTYP=OPTIMIZE     EXETYP=RUN     
 MPLEVL=       0     CITYP =NONE         CCTYP =NONE         VBTYP =NONE    
 DFTTYP=B3LYP        TDDFT =NONE    
 MULT  =       1     ICHARG=       0     NZVAR =       0     COORD =UNIQUE  
 PP    =NONE         RELWFN=NONE         LOCAL =NONE         NUMGRD=       F
 ISPHER=      -1     NOSYM =       0     MAXIT =     200     UNITS =ANGS    
 PLTORB=       F     MOLPLT=       F     AIMPAC=       F     FRIEND=        
 NPRINT=       7     IREST =       0     GEOM  =INPUT   
 NORMF =       0     NORMP =       0     ITOL  =      20     ICUT  =       9
 INTTYP=BEST         GRDTYP=BEST         QMTTOL= 1.0E-06

     $SYSTEM OPTIONS
     ---------------
  REPLICATED MEMORY=   250000000 WORDS (ON EVERY NODE).
 DISTRIBUTED MEMDDI=           0 MILLION WORDS IN AGGREGATE,
 MEMDDI DISTRIBUTED OVER   1 PROCESSORS IS           0 WORDS/PROCESSOR.
 TOTAL MEMORY REQUESTED ON EACH PROCESSOR=   250000000 WORDS.
 TIMLIM=        2879.00 MINUTES, OR       2.0 DAYS.
 PARALL= F  BALTYP=  DLB     KDIAG=    0  COREFL= F
 MXSEQ2=     300 MXSEQ3=     150  mem10=         0

          ----------------
          PROPERTIES INPUT
          ----------------

     MOMENTS            FIELD           POTENTIAL          DENSITY
 IEMOM =       1   IEFLD =       0   IEPOT =       0   IEDEN =       0
 WHERE =COMASS     WHERE =NUCLEI     WHERE =NUCLEI     WHERE =NUCLEI  
 OUTPUT=BOTH       OUTPUT=BOTH       OUTPUT=BOTH       OUTPUT=BOTH    
 IEMINT=       0   IEFINT=       0                     IEDINT=       0
                                                       MORB  =       0
          EXTRAPOLATION IN EFFECT
          DIIS IN EFFECT
 ORBITAL PRINTING OPTION: NPREO=     1    55     2     1

     -------------------------------
     INTEGRAL TRANSFORMATION OPTIONS
     -------------------------------
     NWORD  =            0
     CUTOFF = 1.0E-09     MPTRAN =       0
     DIRTRF =       T     AOINTS =DUP     

          ----------------------
          INTEGRAL INPUT OPTIONS
          ----------------------
 NOPK  =       1 NORDER=       0 SCHWRZ=       T

     ------------------------------------------
     THE POINT GROUP IS CS , NAXIS= 0, ORDER= 2
     ------------------------------------------

     DIMENSIONS OF THE SYMMETRY SUBSPACES ARE
 A'  =   41     A'' =   14

 ..... DONE SETTING UP THE RUN .....
 STEP CPU TIME =     0.01 TOTAL CPU TIME =          0.0 (      0.0 MIN)
 TOTAL WALL CLOCK TIME=          0.0 SECONDS, CPU UTILIZATION IS    50.00%


          -----------------------------
          STATIONARY POINT LOCATION RUN
          -----------------------------

 OBTAINING INITIAL HESSIAN, HESS=GUESS   
 CARTESIAN COORDINATE OPTIMIZATION USING BADGER'S RULE FORCE CONSTANT GUESS

          PARAMETERS CONTROLLING GEOMETRY SEARCH ARE
          METHOD =QA                  UPHESS =BFGS    
          NNEG   =         0          NFRZ   =         0
          NSTEP  =       999          IFOLOW =         1
          HESS   =GUESS               RESTAR =         F
          IHREP  =         0          HSSEND =         T
          NPRT   =         0          NPUN   =         0
          OPTTOL = 5.000E-04          RMIN   = 1.500E-03
          RMAX   = 1.000E-01          RLIM   = 7.000E-02
          DXMAX  = 3.000E-01          PURIFY =         F
          MOVIE  =         F          TRUPD  =         T
          TRMAX  = 5.000E-01          TRMIN  = 5.000E-02
          ITBMAT =         5          STPT   =         F
          STSTEP = 1.000E-02          PROJCT=          T

 BEGINNING GEOMETRY SEARCH POINT NSERCH=   0 ...

 COORDINATES OF SYMMETRY UNIQUE ATOMS (ANGS)
   ATOM   CHARGE       X              Y              Z
 ------------------------------------------------------------
 C           6.0  -1.0900000000   0.6200000000   0.0000000000
 C           6.0  -0.0600000000  -0.4800000000   0.0000000000
 N           7.0   1.2100000000  -0.2500000000   0.0000000000
 H           1.0  -0.9700000000   1.2400000000  -0.8900000000
 H           1.0  -2.0900000000   0.1700000000   0.0000000000
 H           1.0  -0.4300000000  -1.5200000000   0.0000000000
 H           1.0   1.4100000000   0.7600000000   0.0000000000
 COORDINATES OF ALL ATOMS ARE (ANGS)
   ATOM   CHARGE       X              Y              Z
 ------------------------------------------------------------
 C           6.0  -1.0900000000   0.6200000000   0.0000000000
 C           6.0  -0.0600000000  -0.4800000000   0.0000000000
 N           7.0   1.2100000000  -0.2500000000   0.0000000000
 H           1.0  -0.9700000000   1.2400000000   0.8900000000
 H           1.0  -0.9700000000   1.2400000000  -0.8900000000
 H           1.0  -2.0900000000   0.1700000000   0.0000000000
 H           1.0  -0.4300000000  -1.5200000000   0.0000000000
 H           1.0   1.4100000000   0.7600000000   0.0000000000

          ********************
          1 ELECTRON INTEGRALS
          ********************
 ...... END OF ONE-ELECTRON INTEGRALS ......
 STEP CPU TIME =     0.00 TOTAL CPU TIME =          0.0 (      0.0 MIN)
 TOTAL WALL CLOCK TIME=          0.0 SECONDS, CPU UTILIZATION IS    33.33%

          -------------
          GUESS OPTIONS
          -------------
          GUESS =HUCKEL            NORB  =       0          NORDER=       0
          MIX   =       F          PRTMO =       F          PUNMO =       F
          TOLZ  = 1.0E-08          TOLE  = 1.0E-05
          SYMDEN=       F          PURIFY=       F

 INITIAL GUESS ORBITALS GENERATED BY HUCKEL   ROUTINE.
 HUCKEL GUESS REQUIRES     29549 WORDS.

 SYMMETRIES FOR INITIAL GUESS ORBITALS FOLLOW.   BOTH SET(S).
    12 ORBITALS ARE OCCUPIED (    3 CORE ORBITALS).
     4=A'       5=A'       6=A'       7=A''      8=A'       9=A'      10=A'  
    11=A''     12=A'      13=A''     14=A'      15=A'      16=A''     17=A'  
    18=A'      19=A'      20=A'      21=A'      22=A'  
 ...... END OF INITIAL ORBITAL SELECTION ......
 STEP CPU TIME =     0.02 TOTAL CPU TIME =          0.0 (      0.0 MIN)
 TOTAL WALL CLOCK TIME=          0.0 SECONDS, CPU UTILIZATION IS    60.00%

                    ----------------------
                    AO INTEGRAL TECHNOLOGY
                    ----------------------
     S,P,L SHELL ROTATED AXIS INTEGRALS, REPROGRAMMED BY
        KAZUYA ISHIMURA (IMS) AND JOSE SIERRA (SYNSTAR).
     S,P,D,L SHELL ROTATED AXIS INTEGRALS PROGRAMMED BY
        KAZUYA ISHIMURA (INSTITUTE FOR MOLECULAR SCIENCE).
     S,P,D,F,G SHELL TO TOTAL QUARTET ANGULAR MOMENTUM SUM 5,
        ERIC PROGRAM BY GRAHAM FLETCHER (ELORET AND NASA ADVANCED
        SUPERCOMPUTING DIVISION, AMES RESEARCH CENTER).
     S,P,D,F,G,L SHELL GENERAL RYS QUADRATURE PROGRAMMED BY
        MICHEL DUPUIS (PACIFIC NORTHWEST NATIONAL LABORATORY).

          --------------------
          2 ELECTRON INTEGRALS
          --------------------

 DIRECT SCF METHOD SKIPS INTEGRAL STORAGE ON DISK.
 DIRECT TRANSFORMATION SKIPS AO INTEGRAL STORAGE ON DISK.
  ...... END OF TWO-ELECTRON INTEGRALS .....
 STEP CPU TIME =     0.00 TOTAL CPU TIME =          0.0 (      0.0 MIN)
 TOTAL WALL CLOCK TIME=          0.1 SECONDS, CPU UTILIZATION IS    50.00%

          --------------------------
             R-B3LYP SCF CALCULATION
          --------------------------

     NUCLEAR ENERGY =        70.6515169287
     MAXIT =  200     NPUNCH=    2
     EXTRAP=T  DAMP=F  SHIFT=F  RSTRCT=F  DIIS=T  DEM=F  SOSCF=F
         DENSITY MATRIX CONVERGENCE THRESHOLD=  2.00E-05
     COARSE -> FINE DFT GRID SWITCH THRESHOLD=  3.00E-04 (SWITCH IN $DFT)
                   HF -> DFT SWITCH THRESHOLD=  5.00E-03 (SWOFF IN $DFT)
     MEMORY REQUIRED FOR RHF ITERS=    607760 WORDS.

 DIRECT SCF CALCULATION, SCHWRZ=T   FDIFF=T,  DIRTHR=  0.00E+00 NITDIR=10
 SCHWARZ INEQUALITY OVERHEAD:      1539 INTEGRALS, T=        0.00

 DFT CODE IS SWITCHING FROM THE FINE GRID NRAD= 96,  NLEB=  590
                      TO THE COARSE GRID NRAD0= 24, NLEB0=  110

     EXCHANGE FUNCTIONAL   =B88&HFX   
     CORRELATION FUNCTIONAL=LYP88&VWN5
     DFT THRESHOLD         =.883E-08
     GRID CHANGE THRESHOLD =.300E-03
 FOR AN EULER-MACLAURIN QUADRATURE USING  96 RADIAL POINTS:
 SMALLEST GAUSSIAN PRIMITIVE EXPONENT=        0.1612777588 OF TYPE -S-
 ON ATOM NUMBER   4 HAS RADIAL NORMALIZATION=  1.000000
  LARGEST GAUSSIAN PRIMITIVE EXPONENT=     4173.5114600000 OF TYPE -S-
 ON ATOM NUMBER   3 HAS RADIAL NORMALIZATION=  1.000000
 DFT IS SWITCHED OFF, PERFORMING PURE SCF UNTIL SWOFF THRESHOLD IS REACHED.

                                                                                   NONZERO     BLOCKS
 ITER EX DEM     TOTAL ENERGY        E CHANGE  DENSITY CHANGE    DIIS ERROR      INTEGRALS    SKIPPED
   1  0  0     -132.6501043472  -132.6501043472   0.252269195   0.589008083         620408        555
          * * *   INITIATING DIIS PROCEDURE   * * *
   2  1  0     -133.0157482390    -0.3656438918   0.140106292   0.101978290         620332        622
   3  2  0     -133.0465851403    -0.0308369013   0.066214309   0.074741145         619969        729
   4  3  0     -133.0652827416    -0.0186976013   0.019458195   0.007774771         619577        830
   5  4  0     -133.0659926899    -0.0007099483   0.005042861   0.002453415         618415        978
   6  5  0     -133.0660474903    -0.0000548004   0.001884901   0.000697519         615919       1265
 CONVERGED TO SWOFF, SO DFT CALCULATION IS NOW SWITCHED ON.
          * * *   INITIATING DIIS PROCEDURE   * * *
   7  6  0     -133.8455864958    -0.7795390055   0.067115352   0.106632835         620384        559
   8  7  0     -133.8576177438    -0.0120312480   0.038968072   0.028107227         619925        728
   9  8  0     -133.8573398647     0.0002778791   0.028174549   0.027559799         619367        838
  10  9  0     -133.8597700816    -0.0024302170   0.009926225   0.008577989         618902        942
  11 10  0     -133.8600265977    -0.0002565161   0.000560101   0.000639852         616385       1221
  12 11  0     -133.8600280790    -0.0000014813   0.000130955   0.000084515         611266       1790
 DFT CODE IS SWITCHING BACK TO THE FINE GRID
          * * *   INITIATING DIIS PROCEDURE   * * *
  13 12  0     -133.8594766089     0.0005514701   0.001990032   0.000988909         620392        555
  14 13  0     -133.8594804918    -0.0000038829   0.000336729   0.000160146         614466       1498
  15 14  0     -133.8594804949    -0.0000000031   0.000222072   0.000162703         606704       2315
  16 15  0     -133.8594805801    -0.0000000852   0.000103725   0.000105389         602682       2566
  17 16  0     -133.8594806018    -0.0000000217   0.000016394   0.000018576         595888       3088
  18 17  0     -133.8594806029    -0.0000000011   0.000001775   0.000003012         587094       3661

          -----------------
          DENSITY CONVERGED
          -----------------
     TIME TO FORM FOCK OPERATORS=       5.3 SECONDS (       0.3 SEC/ITER)
     FOCK TIME ON FIRST ITERATION=       0.0, LAST ITERATION=       0.8
     TIME TO SOLVE SCF EQUATIONS=       0.1 SECONDS (       0.0 SEC/ITER)

 FINAL R-B3LYP ENERGY IS     -133.8594806029 AFTER  18 ITERATIONS
 DFT EXCHANGE + CORRELATION ENERGY =       -15.7490037284
 TOTAL ELECTRON NUMBER             =        24.0000019263

          ------------
          EIGENVECTORS
          ------------

                      1          2          3          4          5
                  -14.3144   -10.2319   -10.1893    -0.8891    -0.7280
                     A'         A'         A'         A'         A'  
    1  C  1  S   -0.000003   0.002794   0.992873  -0.047971  -0.179964
    2  C  1  S    0.000039  -0.000042   0.050225   0.088010   0.346849
    3  C  1  X   -0.000058  -0.000170   0.000075   0.037678   0.004813
    4  C  1  Y    0.000010   0.000271  -0.000012  -0.025272  -0.020670
    5  C  1  Z    0.000000   0.000000   0.000000   0.000000   0.000000
    6  C  1  S   -0.000361   0.003319  -0.017409   0.066240   0.316153
    7  C  1  X   -0.000040   0.001088  -0.000918   0.015637  -0.005197
    8  C  1  Y    0.000254  -0.001689   0.000919   0.004450  -0.000646
    9  C  1  Z    0.000000   0.000000   0.000000   0.000000   0.000000
   10  C  1 XX   -0.000069  -0.000287  -0.009245   0.003503  -0.002167
   11  C  1 YY   -0.000018  -0.000339  -0.009245   0.001156   0.000569
   12  C  1 ZZ   -0.000019  -0.000107  -0.009179  -0.001388   0.001171
   13  C  1 XY    0.000023   0.000201   0.000064  -0.004983   0.003028
   14  C  1 XZ    0.000000   0.000000   0.000000   0.000000   0.000000
   15  C  1 YZ    0.000000   0.000000   0.000000   0.000000   0.000000
   16  C  2  S    0.000051   0.992769  -0.003030  -0.133283  -0.049694
   17  C  2  S    0.000389   0.048675  -0.000394   0.262686   0.097045
   18  C  2  X    0.000039   0.000135   0.000061   0.130314  -0.177912
   19  C  2  Y   -0.000038   0.000105  -0.000151   0.047897   0.050490
   20  C  2  Z    0.000000   0.000000   0.000000   0.000000   0.000000
   21  C  2  S   -0.000557  -0.011460   0.004339   0.120455   0.086685
   22  C  2  X   -0.000865   0.001409  -0.001952  -0.017924  -0.032648
   23  C  2  Y    0.000350  -0.000757   0.001898  -0.006404   0.013241
   24  C  2  Z    0.000000   0.000000   0.000000   0.000000   0.000000
   25  C  2 XX   -0.000465  -0.008901  -0.000295   0.013025  -0.006143
   26  C  2 YY   -0.000025  -0.009408  -0.000228  -0.006919   0.009928
   27  C  2 ZZ   -0.000015  -0.009643  -0.000140  -0.016880  -0.003824
   28  C  2 XY   -0.000172   0.000123   0.000187   0.007155  -0.013061
   29  C  2 XZ    0.000000   0.000000   0.000000   0.000000   0.000000
   30  C  2 YZ    0.000000   0.000000   0.000000   0.000000   0.000000
   31  N  3  S    0.992756  -0.000284  -0.000024  -0.170505   0.081908
   32  N  3  S    0.034509  -0.000232  -0.000131   0.352768  -0.174537
   33  N  3  X   -0.001194   0.000271   0.000051  -0.136624   0.012911
   34  N  3  Y    0.000956   0.000039   0.000006   0.049772  -0.032801
   35  N  3  Z    0.000000   0.000000   0.000000   0.000000   0.000000
   36  N  3  S    0.004020   0.001502   0.000344   0.345508  -0.188066
   37  N  3  X   -0.000067  -0.000070  -0.000323  -0.048776   0.001430
   38  N  3  Y   -0.000652   0.000227  -0.000442   0.031009  -0.022567
   39  N  3  Z    0.000000   0.000000   0.000000   0.000000   0.000000
   40  N  3 XX   -0.007811  -0.000405   0.000056   0.003820   0.006214
   41  N  3 YY   -0.008124  -0.000224  -0.000001   0.001213  -0.004205
   42  N  3 ZZ   -0.008191  -0.000036  -0.000145  -0.014505   0.005348
   43  N  3 XY    0.000091  -0.000107   0.000029   0.002161  -0.003333
   44  N  3 XZ    0.000000   0.000000   0.000000   0.000000   0.000000
   45  N  3 YZ    0.000000   0.000000   0.000000   0.000000   0.000000
   46  H  4  S    0.000003  -0.000156  -0.000048   0.022753   0.115406
   47  H  4  S   -0.000050   0.000432   0.002719   0.000610   0.026053
   48  H  5  S    0.000003  -0.000156  -0.000048   0.022753   0.115406
   49  H  5  S   -0.000050   0.000432   0.002719   0.000610   0.026053
   50  H  6  S    0.000026  -0.000126  -0.000035   0.019206   0.119324
   51  H  6  S    0.000022  -0.000061   0.002648   0.004638   0.029479
   52  H  7  S    0.000040  -0.000327  -0.000122   0.045439   0.037582
   53  H  7  S    0.000020   0.002134   0.000096  -0.002594   0.012427
   54  H  8  S    0.000274   0.000035  -0.000028   0.107519  -0.067144
   55  H  8  S   -0.000178  -0.000026   0.000382  -0.001194  -0.005555

                      6          7          8          9         10
                   -0.5852    -0.4571    -0.4383    -0.4316    -0.3804
                     A'         A'         A'         A''        A'  
    1  C  1  S    0.059701  -0.015384   0.011563   0.000000   0.008473
    2  C  1  S   -0.116034   0.029497  -0.022808   0.000000  -0.018126
    3  C  1  X    0.045884   0.013331   0.379675   0.000000   0.153752
    4  C  1  Y   -0.127351   0.256990  -0.050709   0.000000   0.311398
    5  C  1  Z    0.000000   0.000000   0.000000   0.423377   0.000000
    6  C  1  S   -0.146264   0.044987  -0.019335   0.000000  -0.035814
    7  C  1  X    0.004088   0.000043   0.180690   0.000000   0.076316
    8  C  1  Y   -0.041025   0.112005  -0.014207   0.000000   0.149573
    9  C  1  Z    0.000000   0.000000   0.000000   0.195979   0.000000
   10  C  1 XX    0.002481  -0.005692  -0.006418   0.000000  -0.022396
   11  C  1 YY    0.006723  -0.004875   0.001210   0.000000   0.008482
   12  C  1 ZZ   -0.006728   0.012644  -0.000008   0.000000   0.016684
   13  C  1 XY   -0.009413   0.003429  -0.018574   0.000000  -0.002029
   14  C  1 XZ    0.000000   0.000000   0.000000   0.008719   0.000000
   15  C  1 YZ    0.000000   0.000000   0.000000   0.019614   0.000000
   16  C  2  S   -0.133431   0.010161  -0.047252   0.000000   0.005164
   17  C  2  S    0.280290  -0.016873   0.105469   0.000000  -0.020630
   18  C  2  X   -0.036032   0.339341  -0.097052   0.000000  -0.111264
   19  C  2  Y   -0.172703   0.040463   0.292229   0.000000  -0.278451
   20  C  2  Z    0.000000   0.000000   0.000000   0.167203   0.000000
   21  C  2  S    0.281534  -0.007329   0.092498   0.000000   0.020679
   22  C  2  X   -0.030884   0.127313  -0.028546   0.000000  -0.027080
   23  C  2  Y   -0.048115   0.025114   0.103381   0.000000  -0.106674
   24  C  2  Z    0.000000   0.000000   0.000000   0.082825   0.000000
   25  C  2 XX   -0.008690   0.007325  -0.013711   0.000000  -0.016490
   26  C  2 YY    0.002941  -0.013221   0.002280   0.000000   0.024188
   27  C  2 ZZ   -0.011563  -0.001225  -0.002485   0.000000   0.002323
   28  C  2 XY    0.002203  -0.007215  -0.004480   0.000000   0.009276
   29  C  2 XZ    0.000000   0.000000   0.000000  -0.002451   0.000000
   30  C  2 YZ    0.000000   0.000000   0.000000   0.010042   0.000000
   31  N  3  S    0.055147   0.000820   0.054475   0.000000  -0.001058
   32  N  3  S   -0.118646   0.007452  -0.120379   0.000000   0.000627
   33  N  3  X   -0.142254  -0.268004  -0.094245   0.000000   0.197999
   34  N  3  Y   -0.207953  -0.259087   0.124934   0.000000   0.035029
   35  N  3  Z    0.000000   0.000000   0.000000   0.097828   0.000000
   36  N  3  S   -0.160103  -0.068239  -0.182162   0.000000  -0.001683
   37  N  3  X   -0.045366  -0.084369  -0.061242   0.000000   0.098403
   38  N  3  Y   -0.084962  -0.113354   0.058970   0.000000   0.008600
   39  N  3  Z    0.000000   0.000000   0.000000   0.056875   0.000000
   40  N  3 XX    0.018448   0.018964   0.012047   0.000000  -0.011969
   41  N  3 YY   -0.018892  -0.024993   0.001875   0.000000   0.012700
   42  N  3 ZZ    0.004440   0.002986  -0.001613   0.000000   0.002024
   43  N  3 XY    0.004276  -0.002893  -0.016430   0.000000   0.012029
   44  N  3 XZ    0.000000   0.000000   0.000000  -0.008802   0.000000
   45  N  3 YZ    0.000000   0.000000   0.000000   0.003441   0.000000
   46  H  4  S   -0.081028   0.102151  -0.006033   0.216650   0.128382
   47  H  4  S   -0.038447   0.067672  -0.007880   0.170991   0.120821
   48  H  5  S   -0.081028   0.102151  -0.006033  -0.216650   0.128382
   49  H  5  S   -0.038447   0.067672  -0.007880  -0.170991   0.120821
   50  H  6  S   -0.042256  -0.054262  -0.213908   0.000000  -0.191979
   51  H  6  S   -0.019196  -0.047075  -0.160215   0.000000  -0.163288
   52  H  7  S    0.186400  -0.103616  -0.088672   0.000000   0.198815
   53  H  7  S    0.083040  -0.079339  -0.076694   0.000000   0.179806
   54  H  8  S   -0.167949  -0.190430   0.010637   0.000000   0.074338
   55  H  8  S   -0.076992  -0.135338   0.015358   0.000000   0.091706

                     11         12         13         14         15
                   -0.2968    -0.2512    -0.0025     0.1016     0.1202
                     A''        A'         A''        A'         A'  
    1  C  1  S    0.000000   0.032183   0.000000  -0.099079   0.013489
    2  C  1  S    0.000000  -0.066382   0.000000   0.112660  -0.010838
    3  C  1  X    0.000000  -0.172111   0.000000  -0.114346   0.235906
    4  C  1  Y    0.000000   0.123175   0.000000   0.149059   0.098292
    5  C  1  Z   -0.150938   0.000000   0.017282   0.000000   0.000000
    6  C  1  S    0.000000  -0.217956   0.000000   1.658910  -0.354382
    7  C  1  X    0.000000  -0.079295   0.000000  -0.354006   0.603671
    8  C  1  Y    0.000000   0.132539   0.000000   0.372977   0.238287
    9  C  1  Z   -0.093098   0.000000   0.192520   0.000000   0.000000
   10  C  1 XX    0.000000   0.006202   0.000000  -0.013937   0.011694
   11  C  1 YY    0.000000  -0.002968   0.000000  -0.002954  -0.006032
   12  C  1 ZZ    0.000000   0.000448   0.000000  -0.007903  -0.003679
   13  C  1 XY    0.000000   0.006672   0.000000  -0.011579   0.009064
   14  C  1 XZ    0.006073   0.000000   0.011520   0.000000   0.000000
   15  C  1 YZ   -0.018116   0.000000  -0.028659   0.000000   0.000000
   16  C  2  S    0.000000  -0.019777   0.000000  -0.006602   0.081805
   17  C  2  S    0.000000   0.047199   0.000000   0.049826  -0.135063
   18  C  2  X    0.000000   0.153662   0.000000  -0.058705   0.079771
   19  C  2  Y    0.000000  -0.102577   0.000000   0.010127   0.233193
   20  C  2  Z    0.346300   0.000000   0.461309   0.000000   0.000000
   21  C  2  S    0.000000  -0.003293   0.000000   0.002999  -1.215242
   22  C  2  X    0.000000  -0.049027   0.000000  -0.086792   0.107719
   23  C  2  Y    0.000000   0.016029   0.000000  -0.086986   0.584962
   24  C  2  Z    0.238784   0.000000   0.537380   0.000000   0.000000
   25  C  2 XX    0.000000  -0.015180   0.000000   0.007930  -0.002005
   26  C  2 YY    0.000000   0.008943   0.000000   0.007011   0.016912
   27  C  2 ZZ    0.000000  -0.002839   0.000000  -0.003951  -0.000733
   28  C  2 XY    0.000000   0.029055   0.000000   0.011277   0.007448
   29  C  2 XZ    0.024407   0.000000  -0.028082   0.000000   0.000000
   30  C  2 YZ    0.001046   0.000000  -0.008177   0.000000   0.000000
   31  N  3  S    0.000000   0.079906   0.000000  -0.054447  -0.036217
   32  N  3  S    0.000000  -0.166371   0.000000   0.087033   0.044887
   33  N  3  X    0.000000  -0.344443   0.000000   0.019950   0.028638
   34  N  3  Y    0.000000   0.369874   0.000000   0.232788   0.047464
   35  N  3  Z    0.450401   0.000000  -0.416848   0.000000   0.000000
   36  N  3  S    0.000000  -0.333681   0.000000   0.778938   0.521245
   37  N  3  X    0.000000  -0.288579   0.000000   0.038899  -0.017433
   38  N  3  Y    0.000000   0.226371   0.000000   0.499076   0.040964
   39  N  3  Z    0.309491   0.000000  -0.506834   0.000000   0.000000
   40  N  3 XX    0.000000   0.018580   0.000000  -0.014644  -0.009317
   41  N  3 YY    0.000000   0.021003   0.000000  -0.000050  -0.009693
   42  N  3 ZZ    0.000000  -0.007468   0.000000  -0.018800  -0.012720
   43  N  3 XY    0.000000  -0.017178   0.000000  -0.004796  -0.014205
   44  N  3 XZ   -0.027352   0.000000  -0.005692   0.000000   0.000000
   45  N  3 YZ    0.012046   0.000000  -0.020426   0.000000   0.000000
   46  H  4  S   -0.104282   0.005458  -0.090816  -0.004510  -0.014523
   47  H  4  S   -0.093908   0.023033  -0.360533  -0.820621  -0.226538
   48  H  5  S    0.104282   0.005458   0.090816  -0.004510  -0.014523
   49  H  5  S    0.093908   0.023033   0.360533  -0.820621  -0.226538
   50  H  6  S    0.000000   0.062264   0.000000  -0.061062   0.063430
   51  H  6  S    0.000000   0.126350   0.000000  -0.878354   1.093112
   52  H  7  S    0.000000   0.109418   0.000000   0.058053   0.092308
   53  H  7  S    0.000000   0.154474   0.000000  -0.008915   1.450894
   54  H  8  S    0.000000   0.143335   0.000000  -0.043947  -0.074609
   55  H  8  S    0.000000   0.162965   0.000000  -1.073567  -0.553437

                     16         17         18         19         20
                    0.1367     0.1778     0.1899     0.2706     0.3340
                     A'         A''        A'         A'         A'  
    1  C  1  S   -0.114222   0.000000   0.053276   0.061712  -0.004660
    2  C  1  S    0.129536   0.000000  -0.061313  -0.022637  -0.026032
    3  C  1  X    0.053383   0.000000   0.174864  -0.190582   0.056875
    4  C  1  Y    0.084012   0.000000   0.276200   0.112141  -0.005108
    5  C  1  Z    0.000000  -0.434454   0.000000   0.000000   0.000000
    6  C  1  S    1.972532   0.000000  -0.857177  -1.296168   0.631634
    7  C  1  X    0.425847   0.000000   0.530574  -1.558252  -0.042803
    8  C  1  Y    0.263464   0.000000   1.228470   0.935591  -0.952128
    9  C  1  Z    0.000000  -1.406768   0.000000   0.000000   0.000000
   10  C  1 XX    0.007297   0.000000   0.010651   0.026123   0.024751
   11  C  1 YY   -0.013454   0.000000   0.012280   0.005963  -0.039578
   12  C  1 ZZ   -0.017314   0.000000  -0.011531  -0.016816   0.009780
   13  C  1 XY    0.011255   0.000000  -0.009128  -0.038176  -0.003861
   14  C  1 XZ    0.000000   0.011972   0.000000   0.000000   0.000000
   15  C  1 YZ    0.000000   0.005281   0.000000   0.000000   0.000000
   16  C  2  S    0.028448   0.000000  -0.095192  -0.078927  -0.055456
   17  C  2  S    0.006651   0.000000   0.164724   0.067244  -0.050509
   18  C  2  X    0.120062   0.000000  -0.137371  -0.130502   0.171631
   19  C  2  Y   -0.048352   0.000000  -0.099752   0.445389  -0.037436
   20  C  2  Z    0.000000   0.134668   0.000000   0.000000   0.000000
   21  C  2  S   -0.563180   0.000000   1.448431   1.991713   2.031960
   22  C  2  X    0.423578   0.000000  -0.747692   0.027575   2.967999
   23  C  2  Y   -0.261327   0.000000  -0.414325   1.770225   0.053150
   24  C  2  Z    0.000000   0.430173   0.000000   0.000000   0.000000
   25  C  2 XX   -0.003391   0.000000  -0.019652  -0.000949  -0.034340
   26  C  2 YY    0.020185   0.000000   0.012438  -0.004033   0.014564
   27  C  2 ZZ   -0.001676   0.000000  -0.001936   0.004369   0.012947
   28  C  2 XY   -0.017848   0.000000   0.005367   0.002630  -0.002713
   29  C  2 XZ    0.000000   0.006964   0.000000   0.000000   0.000000
   30  C  2 YZ    0.000000  -0.009375   0.000000   0.000000   0.000000
   31  N  3  S    0.061648   0.000000   0.000652   0.050023   0.092063
   32  N  3  S   -0.091424   0.000000  -0.036518  -0.053708  -0.110645
   33  N  3  X   -0.043339   0.000000   0.111560   0.074963   0.229879
   34  N  3  Y   -0.194428   0.000000   0.018429  -0.097940   0.242020
   35  N  3  Z    0.000000  -0.139640   0.000000   0.000000   0.000000
   36  N  3  S   -0.880645   0.000000   0.322869  -1.207036  -2.593540
   37  N  3  X   -0.029802   0.000000   0.030913   0.577489   1.589427
   38  N  3  Y   -0.393404   0.000000   0.111003  -0.497515   0.682252
   39  N  3  Z    0.000000  -0.182305   0.000000   0.000000   0.000000
   40  N  3 XX    0.016998   0.000000   0.002225   0.008622  -0.018809
   41  N  3 YY    0.013705   0.000000  -0.008181  -0.013432   0.031306
   42  N  3 ZZ    0.012302   0.000000  -0.006883   0.028677   0.033153
   43  N  3 XY    0.005655   0.000000   0.004173  -0.012035  -0.003130
   44  N  3 XZ    0.000000  -0.005926   0.000000   0.000000   0.000000
   45  N  3 YZ    0.000000  -0.005235   0.000000   0.000000   0.000000
   46  H  4  S   -0.063192   0.061337  -0.045443  -0.091413   0.001387
   47  H  4  S   -1.054344   1.525329  -0.563449  -0.051484   0.268198
   48  H  5  S   -0.063192  -0.061337  -0.045443  -0.091413   0.001387
   49  H  5  S   -1.054344  -1.525329  -0.563449  -0.051484   0.268198
   50  H  6  S    0.071900   0.000000   0.056216  -0.060298   0.092503
   51  H  6  S   -0.074108   0.000000   1.568367  -0.565247  -0.100935
   52  H  7  S    0.018900   0.000000  -0.027668  -0.024634  -0.003358
   53  H  7  S    0.128070   0.000000  -1.341561   1.078969   0.076452
   54  H  8  S    0.103378   0.000000  -0.019147  -0.054018  -0.010035
   55  H  8  S    1.077911   0.000000  -0.178447   0.602669  -0.749876

                     21         22         23         24         25
                    0.5363     0.5473     0.5620     0.6178     0.6274
                     A'         A''        A'         A'         A'' 
    1  C  1  S   -0.014462   0.000000   0.012286   0.008208   0.000000
    2  C  1  S    0.189223   0.000000  -0.150373  -0.156315   0.000000
    3  C  1  X    0.411044   0.000000  -0.681389  -0.026655   0.000000
    4  C  1  Y   -0.798569   0.000000  -0.124407   0.308093   0.000000
    5  C  1  Z    0.000000  -0.431214   0.000000   0.000000  -0.640018
    6  C  1  S    0.120740   0.000000   0.220077   0.671790   0.000000
    7  C  1  X   -0.324891   0.000000   1.368646  -0.034402   0.000000
    8  C  1  Y    1.086246   0.000000   0.464137  -0.619776   0.000000
    9  C  1  Z    0.000000   0.918066   0.000000   0.000000   1.724203
   10  C  1 XX    0.038106   0.000000   0.082029  -0.036182   0.000000
   11  C  1 YY    0.023304   0.000000  -0.005495   0.032444   0.000000
   12  C  1 ZZ   -0.039271   0.000000  -0.082473  -0.002578   0.000000
   13  C  1 XY   -0.018298   0.000000   0.041724  -0.057091   0.000000
   14  C  1 XZ    0.000000  -0.043039   0.000000   0.000000  -0.045669
   15  C  1 YZ    0.000000  -0.060715   0.000000   0.000000  -0.083028
   16  C  2  S    0.055362   0.000000  -0.008739  -0.002161   0.000000
   17  C  2  S    0.090660   0.000000  -0.033683  -0.445901   0.000000
   18  C  2  X   -0.222250   0.000000  -0.270004  -0.819563   0.000000
   19  C  2  Y   -0.018142   0.000000  -0.045683   0.061121   0.000000
   20  C  2  Z    0.000000  -0.819989   0.000000   0.000000   0.597285
   21  C  2  S   -0.189086   0.000000  -1.004412  -0.261230   0.000000
   22  C  2  X    0.210224   0.000000  -0.390461   0.989210   0.000000
   23  C  2  Y   -0.240777   0.000000  -0.278898  -0.328511   0.000000
   24  C  2  Z    0.000000   0.648074   0.000000   0.000000  -1.210277
   25  C  2 XX    0.067962   0.000000  -0.067213  -0.002980   0.000000
   26  C  2 YY    0.093228   0.000000   0.018205  -0.099217   0.000000
   27  C  2 ZZ   -0.055489   0.000000   0.008939   0.009227   0.000000
   28  C  2 XY   -0.082860   0.000000   0.050421  -0.001742   0.000000
   29  C  2 XZ    0.000000  -0.029603   0.000000   0.000000   0.005811
   30  C  2 YZ    0.000000  -0.009404   0.000000   0.000000   0.033402
   31  N  3  S   -0.019036   0.000000  -0.039891  -0.029552   0.000000
   32  N  3  S    0.106829   0.000000  -0.034842  -0.048511   0.000000
   33  N  3  X   -0.024407   0.000000   0.268129  -0.041566   0.000000
   34  N  3  Y    0.039251   0.000000  -0.073559   0.044101   0.000000
   35  N  3  Z    0.000000  -0.124122   0.000000   0.000000   0.241665
   36  N  3  S    0.039240   0.000000   0.981780  -0.057283   0.000000
   37  N  3  X   -0.288704   0.000000  -0.716710  -0.643242   0.000000
   38  N  3  Y    0.014371   0.000000   0.025874  -0.221609   0.000000
   39  N  3  Z    0.000000   0.033933   0.000000   0.000000   0.028316
   40  N  3 XX   -0.029004   0.000000  -0.001935  -0.142518   0.000000
   41  N  3 YY    0.053640   0.000000  -0.030616   0.047209   0.000000
   42  N  3 ZZ   -0.002884   0.000000  -0.004892   0.013642   0.000000
   43  N  3 XY    0.006360   0.000000  -0.057602  -0.039079   0.000000
   44  N  3 XZ    0.000000   0.050746   0.000000   0.000000  -0.037878
   45  N  3 YZ    0.000000   0.020791   0.000000   0.000000   0.018578
   46  H  4  S   -0.162844  -0.291638  -0.158970   0.023270  -0.293625
   47  H  4  S   -0.086648  -0.226297  -0.065947   0.032559  -0.372967
   48  H  5  S   -0.162844   0.291638  -0.158970   0.023270   0.293625
   49  H  5  S   -0.086648   0.226297  -0.065947   0.032559   0.372967
   50  H  6  S    0.047900   0.000000   0.451975  -0.159239   0.000000
   51  H  6  S    0.086538   0.000000   0.265491   0.016027   0.000000
   52  H  7  S    0.162135   0.000000   0.213619  -0.329157   0.000000
   53  H  7  S   -0.045882   0.000000  -0.225086   0.157334   0.000000
   54  H  8  S    0.159022   0.000000  -0.195966   0.291567   0.000000
   55  H  8  S   -0.133241   0.000000  -0.169079  -0.082552   0.000000

                     26         27         28         29         30
                    0.7337     0.7439     0.7817     0.7908     0.8632
                     A'         A'         A''        A'         A'  
    1  C  1  S    0.015252  -0.028318   0.000000  -0.044595   0.029332
    2  C  1  S    0.054191   0.158577   0.000000   0.032695   0.020691
    3  C  1  X   -0.077427   0.426574   0.000000  -0.210803  -0.285183
    4  C  1  Y   -0.024968   0.215102   0.000000  -0.397834  -0.219487
    5  C  1  Z    0.000000   0.000000   0.076102   0.000000   0.000000
    6  C  1  S   -0.015713  -1.052814   0.000000  -0.575775  -0.590918
    7  C  1  X    0.386334  -1.804592   0.000000   0.215942   0.046985
    8  C  1  Y   -0.151897  -0.287638   0.000000   1.611572   0.136804
    9  C  1  Z    0.000000   0.000000   0.284321   0.000000   0.000000
   10  C  1 XX   -0.018262   0.029488   0.000000  -0.077235  -0.064690
   11  C  1 YY    0.041105  -0.095887   0.000000   0.046971   0.018960
   12  C  1 ZZ    0.000553   0.042398   0.000000  -0.019051   0.060846
   13  C  1 XY    0.006216   0.043923   0.000000   0.068468  -0.024340
   14  C  1 XZ    0.000000   0.000000  -0.000796   0.000000   0.000000
   15  C  1 YZ    0.000000   0.000000  -0.041135   0.000000   0.000000
   16  C  2  S    0.060252   0.023137   0.000000  -0.028048  -0.016544
   17  C  2  S    0.004371  -0.567254   0.000000  -0.827268   1.007292
   18  C  2  X   -0.400115  -0.129586   0.000000   0.317000  -0.232248
   19  C  2  Y    0.068733  -0.779810   0.000000  -0.368525  -0.702245
   20  C  2  Z    0.000000   0.000000   0.303845   0.000000   0.000000
   21  C  2  S    0.205510   1.361417   0.000000   1.913383  -1.610664
   22  C  2  X    0.713851   0.450311   0.000000  -1.338348   0.722881
   23  C  2  Y   -0.129192   2.621998   0.000000   0.452248   2.189032
   24  C  2  Z    0.000000   0.000000  -0.875351   0.000000   0.000000
   25  C  2 XX    0.158758  -0.009139   0.000000  -0.023262   0.129996
   26  C  2 YY    0.019589   0.022551   0.000000  -0.153186  -0.018669
   27  C  2 ZZ   -0.071974  -0.044782   0.000000   0.023675   0.059145
   28  C  2 XY    0.125192   0.023097   0.000000  -0.034006  -0.037713
   29  C  2 XZ    0.000000   0.000000  -0.061801   0.000000   0.000000
   30  C  2 YZ    0.000000   0.000000   0.033094   0.000000   0.000000
   31  N  3  S   -0.021629  -0.024335   0.000000  -0.003075   0.022070
   32  N  3  S   -0.011367   0.088267   0.000000  -0.252741  -0.067395
   33  N  3  X   -0.728013  -0.047717   0.000000  -0.095879  -0.092072
   34  N  3  Y    0.363702  -0.187154   0.000000   0.380077  -0.072994
   35  N  3  Z    0.000000   0.000000  -0.929045   0.000000   0.000000
   36  N  3  S   -0.318727  -0.769499   0.000000   0.681105  -0.278763
   37  N  3  X    0.936887   0.213643   0.000000   0.104491   0.451122
   38  N  3  Y   -0.205998  -0.130576   0.000000  -0.419655  -0.299274
   39  N  3  Z    0.000000   0.000000   1.300372   0.000000   0.000000
   40  N  3 XX   -0.120822  -0.074034   0.000000  -0.065272  -0.028854
   41  N  3 YY   -0.082035  -0.020126   0.000000  -0.071780   0.041809
   42  N  3 ZZ    0.018166   0.080443   0.000000  -0.017460  -0.044886
   43  N  3 XY   -0.099100  -0.017641   0.000000   0.006181   0.036392
   44  N  3 XZ    0.000000   0.000000   0.026417   0.000000   0.000000
   45  N  3 YZ    0.000000   0.000000   0.019959   0.000000   0.000000
   46  H  4  S    0.118800  -0.177483  -0.166065  -0.211223   0.298718
   47  H  4  S   -0.013956   0.263264   0.043213  -0.526908  -0.241946
   48  H  5  S    0.118800  -0.177483   0.166065  -0.211223   0.298718
   49  H  5  S   -0.013956   0.263264  -0.043213  -0.526908  -0.241946
   50  H  6  S    0.086177  -0.040380   0.000000  -0.244016  -0.130527
   51  H  6  S    0.303135  -0.929077   0.000000   0.557052   0.458264
   52  H  7  S    0.311005   0.316543   0.000000  -0.591804  -0.385461
   53  H  7  S   -0.311156   1.011671   0.000000   0.057585   2.222310
   54  H  8  S   -0.404975  -0.236427   0.000000  -0.155254   0.264989
   55  H  8  S    0.244406   0.109196   0.000000   0.011446  -0.381373

                     31         32         33         34         35
                    0.8677     0.9079     0.9279     0.9549     1.0159
                     A''        A'         A'         A'         A'  
    1  C  1  S    0.000000  -0.009887   0.027210   0.031097   0.014815
    2  C  1  S    0.000000  -0.030000  -0.778771  -0.983174   0.345666
    3  C  1  X    0.000000  -0.432483   0.186052   0.314157   0.042890
    4  C  1  Y    0.000000  -0.427619  -0.139671  -0.294226  -0.026123
    5  C  1  Z    0.841866   0.000000   0.000000   0.000000   0.000000
    6  C  1  S    0.000000   0.217101   1.210608   2.117231   0.094181
    7  C  1  X    0.000000   0.500212  -0.224920  -0.736234   0.464417
    8  C  1  Y    0.000000   0.468188   0.652843   0.378716  -0.224775
    9  C  1  Z   -1.366316   0.000000   0.000000   0.000000   0.000000
   10  C  1 XX    0.000000  -0.126466  -0.013123  -0.090399   0.002781
   11  C  1 YY    0.000000  -0.053360  -0.040810  -0.071600   0.116556
   12  C  1 ZZ    0.000000   0.162525  -0.065055   0.047102  -0.037075
   13  C  1 XY    0.000000  -0.081043   0.108136   0.043889   0.001218
   14  C  1 XZ   -0.011815   0.000000   0.000000   0.000000   0.000000
   15  C  1 YZ   -0.204040   0.000000   0.000000   0.000000   0.000000
   16  C  2  S    0.000000   0.010104  -0.011434  -0.021748   0.011294
   17  C  2  S    0.000000  -0.547433  -0.556103  -0.058019  -0.023881
   18  C  2  X    0.000000   0.036894   0.054698  -0.009541  -0.278562
   19  C  2  Y    0.000000   0.169925   0.042404  -0.058387   0.078590
   20  C  2  Z   -0.013035   0.000000   0.000000   0.000000   0.000000
   21  C  2  S    0.000000   1.392684   1.596764  -0.267403   0.961132
   22  C  2  X    0.000000   0.555125  -0.264529  -0.226793   1.379613
   23  C  2  Y    0.000000  -0.365988  -0.064020   0.200122  -1.448235
   24  C  2  Z    0.172356   0.000000   0.000000   0.000000   0.000000
   25  C  2 XX    0.000000  -0.009204   0.022230  -0.073709   0.145401
   26  C  2 YY    0.000000  -0.001790  -0.084523  -0.022357  -0.166413
   27  C  2 ZZ    0.000000  -0.038279  -0.005857   0.048665   0.039775
   28  C  2 XY    0.000000   0.017496   0.019539   0.028624  -0.077492
   29  C  2 XZ   -0.044596   0.000000   0.000000   0.000000   0.000000
   30  C  2 YZ    0.083681   0.000000   0.000000   0.000000   0.000000
   31  N  3  S    0.000000   0.001922   0.006419  -0.012069  -0.015965
   32  N  3  S    0.000000  -0.117290  -0.436305   0.269537   0.425819
   33  N  3  X    0.000000   0.040955  -0.351664   0.324431  -0.146831
   34  N  3  Y    0.000000  -0.382871  -0.497207   0.313465  -0.474603
   35  N  3  Z    0.193842   0.000000   0.000000   0.000000   0.000000
   36  N  3  S    0.000000  -0.286276   0.815282  -0.499075  -1.217515
   37  N  3  X    0.000000   0.293705   0.637937  -0.668235   0.780516
   38  N  3  Y    0.000000   0.743793   0.734080  -0.530852   1.898973
   39  N  3  Z   -0.257134   0.000000   0.000000   0.000000   0.000000
   40  N  3 XX    0.000000  -0.046727  -0.134059   0.087886   0.026225
   41  N  3 YY    0.000000  -0.023929  -0.000166  -0.044679  -0.071025
   42  N  3 ZZ    0.000000   0.023908  -0.099187   0.112136   0.198534
   43  N  3 XY    0.000000  -0.045159   0.005179  -0.028294   0.087901
   44  N  3 XZ   -0.004006   0.000000   0.000000   0.000000   0.000000
   45  N  3 YZ    0.013831   0.000000   0.000000   0.000000   0.000000
   46  H  4  S   -0.687745   0.312920   0.178794   0.517697  -0.014587
   47  H  4  S    1.441912  -0.609417  -0.541745  -0.974020   0.174987
   48  H  5  S    0.687745   0.312920   0.178794   0.517697  -0.014587
   49  H  5  S   -1.441912  -0.609417  -0.541745  -0.974020   0.174987
   50  H  6  S    0.000000  -0.779946   0.586859   0.241520   0.109241
   51  H  6  S    0.000000   1.234657  -0.774811  -0.886113   0.281310
   52  H  7  S    0.000000   0.464332  -0.040060  -0.097753  -0.541809
   53  H  7  S    0.000000  -0.794237  -0.303259   0.194085  -0.132533
   54  H  8  S    0.000000  -0.009843   0.505606  -0.512721  -0.623143
   55  H  8  S    0.000000  -0.475786  -1.214534   1.147605  -0.429322

                     36         37         38         39         40
                    1.2672     1.3219     1.4087     1.4922     1.7354
                     A'         A'         A''        A''        A'' 
    1  C  1  S   -0.124528   0.069217   0.000000   0.000000   0.000000
    2  C  1  S   -1.784654   0.829863   0.000000   0.000000   0.000000
    3  C  1  X   -0.132664  -0.143547   0.000000   0.000000   0.000000
    4  C  1  Y    0.087200  -0.046725   0.000000   0.000000   0.000000
    5  C  1  Z    0.000000   0.000000  -0.123105   0.016736   0.065047
    6  C  1  S    5.772983  -3.768662   0.000000   0.000000   0.000000
    7  C  1  X    0.781768  -0.694076   0.000000   0.000000   0.000000
    8  C  1  Y   -0.878502   0.892626   0.000000   0.000000   0.000000
    9  C  1  Z    0.000000   0.000000  -0.103103  -0.166150  -0.259859
   10  C  1 XX   -0.070047   0.014637   0.000000   0.000000   0.000000
   11  C  1 YY   -0.100895  -0.109879   0.000000   0.000000   0.000000
   12  C  1 ZZ   -0.076370   0.171844   0.000000   0.000000   0.000000
   13  C  1 XY   -0.048319   0.023380   0.000000   0.000000   0.000000
   14  C  1 XZ    0.000000   0.000000   0.584089  -0.156647  -0.408928
   15  C  1 YZ    0.000000   0.000000  -0.143025  -0.060228   0.131970
   16  C  2  S    0.041714  -0.038379   0.000000   0.000000   0.000000
   17  C  2  S    0.326926  -0.857698   0.000000   0.000000   0.000000
   18  C  2  X   -0.071975   0.038538   0.000000   0.000000   0.000000
   19  C  2  Y   -0.051922  -0.055568   0.000000   0.000000   0.000000
   20  C  2  Z    0.000000   0.000000  -0.001180   0.170977   0.040812
   21  C  2  S   -1.079102   5.374088   0.000000   0.000000   0.000000
   22  C  2  X    2.207253   0.688437   0.000000   0.000000   0.000000
   23  C  2  Y   -1.043900   2.153770   0.000000   0.000000   0.000000
   24  C  2  Z    0.000000   0.000000   0.028121  -0.029455   0.183437
   25  C  2 XX    0.093237   0.021335   0.000000   0.000000   0.000000
   26  C  2 YY    0.010879  -0.135195   0.000000   0.000000   0.000000
   27  C  2 ZZ   -0.088143   0.059764   0.000000   0.000000   0.000000
   28  C  2 XY    0.069120   0.034919   0.000000   0.000000   0.000000
   29  C  2 XZ    0.000000   0.000000  -0.368662  -0.484571  -0.069271
   30  C  2 YZ    0.000000   0.000000   0.445751  -0.492141  -0.042702
   31  N  3  S    0.032959   0.082887   0.000000   0.000000   0.000000
   32  N  3  S    0.772601   1.458720   0.000000   0.000000   0.000000
   33  N  3  X   -0.199290  -0.172830   0.000000   0.000000   0.000000
   34  N  3  Y   -0.055864   0.106561   0.000000   0.000000   0.000000
   35  N  3  Z    0.000000   0.000000   0.087390   0.137815   0.014534
   36  N  3  S   -2.413712  -5.136097   0.000000   0.000000   0.000000
   37  N  3  X    1.043851   1.680460   0.000000   0.000000   0.000000
   38  N  3  Y    0.480559  -0.938149   0.000000   0.000000   0.000000
   39  N  3  Z    0.000000   0.000000  -0.017400   0.024081  -0.092371
   40  N  3 XX    0.189213   0.232501   0.000000   0.000000   0.000000
   41  N  3 YY    0.199008   0.359641   0.000000   0.000000   0.000000
   42  N  3 ZZ   -0.055573   0.077553   0.000000   0.000000   0.000000
   43  N  3 XY    0.001092  -0.013459   0.000000   0.000000   0.000000
   44  N  3 XZ    0.000000   0.000000   0.192609   0.528824  -0.035064
   45  N  3 YZ    0.000000   0.000000   0.270898  -0.107653   0.904372
   46  H  4  S   -0.453993   0.241071   0.151648   0.042054   0.015345
   47  H  4  S   -0.619635   0.088521  -0.061017   0.115999   0.093572
   48  H  5  S   -0.453993   0.241071  -0.151648  -0.042054  -0.015345
   49  H  5  S   -0.619635   0.088521   0.061017  -0.115999  -0.093572
   50  H  6  S   -0.453962   0.264381   0.000000   0.000000   0.000000
   51  H  6  S   -0.501573   0.514183   0.000000   0.000000   0.000000
   52  H  7  S   -0.016883   0.047240   0.000000   0.000000   0.000000
   53  H  7  S    0.007695   0.276565   0.000000   0.000000   0.000000
   54  H  8  S    0.015165   0.457754   0.000000   0.000000   0.000000
   55  H  8  S   -0.151070   0.658543   0.000000   0.000000   0.000000

                     41         42         43         44         45
                    1.7636     1.8060     1.8931     2.1231     2.1872
                     A'         A'         A'         A''        A'  
    1  C  1  S   -0.021182   0.008778   0.049514   0.000000   0.022751
    2  C  1  S    0.269508  -0.262103   0.107657   0.000000   0.201159
    3  C  1  X    0.219388  -0.067346  -0.110070   0.000000  -0.095583
    4  C  1  Y   -0.065256   0.148444   0.144381   0.000000  -0.053747
    5  C  1  Z    0.000000   0.000000   0.000000   0.058594   0.000000
    6  C  1  S    0.171062  -0.205865  -1.341505   0.000000  -1.098299
    7  C  1  X   -0.412519  -0.378713  -0.446167   0.000000  -0.854616
    8  C  1  Y   -0.399420  -0.160307  -0.041837   0.000000  -0.000079
    9  C  1  Z    0.000000   0.000000   0.000000   0.706772   0.000000
   10  C  1 XX   -0.411532  -0.395300   0.023804   0.000000   0.608519
   11  C  1 YY    0.559193   0.595824   0.370616   0.000000  -0.094532
   12  C  1 ZZ   -0.166226  -0.171284  -0.422813   0.000000  -0.473539
   13  C  1 XY    0.358186   0.049837  -0.283692   0.000000   0.633795
   14  C  1 XZ    0.000000   0.000000   0.000000   0.732833   0.000000
   15  C  1 YZ    0.000000   0.000000   0.000000   0.262375   0.000000
   16  C  2  S   -0.013087   0.003627  -0.032245   0.000000  -0.049845
   17  C  2  S    0.125959  -0.090921  -0.666807   0.000000  -0.199915
   18  C  2  X   -0.009083   0.099063   0.134779   0.000000  -0.177818
   19  C  2  Y   -0.036928   0.021828  -0.210879   0.000000   0.073091
   20  C  2  Z    0.000000   0.000000   0.000000   0.015745   0.000000
   21  C  2  S    0.478880   0.523782   1.899692   0.000000   1.360978
   22  C  2  X    1.255982   0.742303  -0.020900   0.000000   0.296245
   23  C  2  Y    0.034720   1.691033   0.697483   0.000000   1.030579
   24  C  2  Z    0.000000   0.000000   0.000000  -0.393561   0.000000
   25  C  2 XX    0.145781   0.274074   0.194357   0.000000   0.210750
   26  C  2 YY   -0.128854  -0.462046   0.360236   0.000000   0.081074
   27  C  2 ZZ   -0.008071   0.178048  -0.613604   0.000000  -0.381857
   28  C  2 XY    0.355697  -0.258546  -0.269465   0.000000   0.309933
   29  C  2 XZ    0.000000   0.000000   0.000000   0.237665   0.000000
   30  C  2 YZ    0.000000   0.000000   0.000000  -0.707103   0.000000
   31  N  3  S    0.022040   0.025663  -0.007909   0.000000   0.000009
   32  N  3  S    0.067284   0.170410  -0.001674   0.000000   0.067908
   33  N  3  X    0.221637   0.110653   0.094350   0.000000   0.167910
   34  N  3  Y   -0.141234   0.188875   0.025278   0.000000   0.053296
   35  N  3  Z    0.000000   0.000000   0.000000  -0.031849   0.000000
   36  N  3  S   -1.214137  -1.385052  -0.459891   0.000000  -0.853180
   37  N  3  X    0.329132   0.401861   0.269042   0.000000   0.136498
   38  N  3  Y    0.278285  -0.672854   0.206544   0.000000  -0.453836
   39  N  3  Z    0.000000   0.000000   0.000000   0.119401   0.000000
   40  N  3 XX    0.197193  -0.102157   0.037080   0.000000  -0.005917
   41  N  3 YY    0.007124  -0.073077   0.315858   0.000000  -0.111232
   42  N  3 ZZ   -0.201948   0.209841  -0.420821   0.000000  -0.018331
   43  N  3 XY   -0.506943   0.420570  -0.078183   0.000000   0.484497
   44  N  3 XZ    0.000000   0.000000   0.000000  -0.112878   0.000000
   45  N  3 YZ    0.000000   0.000000   0.000000   0.267409   0.000000
   46  H  4  S   -0.076087  -0.010028   0.315381  -0.372729   0.307969
   47  H  4  S    0.174450  -0.046066   0.064128  -0.137901   0.013245
   48  H  5  S   -0.076087  -0.010028   0.315381   0.372729   0.307969
   49  H  5  S    0.174450  -0.046066   0.064128   0.137901   0.013245
   50  H  6  S   -0.112185   0.090823   0.146285   0.000000  -0.637789
   51  H  6  S   -0.156700  -0.130364  -0.091521   0.000000   0.037734
   52  H  7  S   -0.064410   0.792062  -0.168610   0.000000  -0.062748
   53  H  7  S    0.189326   0.583248   0.023863   0.000000   0.302647
   54  H  8  S    0.145586   0.174335  -0.349097   0.000000   0.110843
   55  H  8  S   -0.085840   0.184433   0.004106   0.000000   0.217129

                     46         47         48         49         50
                    2.2211     2.2360     2.3092     2.5095     2.5191
                     A''        A'         A'         A''        A'  
    1  C  1  S    0.000000   0.016767   0.016986   0.000000   0.049156
    2  C  1  S    0.000000   0.287799   0.125361   0.000000   0.047175
    3  C  1  X    0.000000   0.083651  -0.030901   0.000000  -0.188081
    4  C  1  Y    0.000000   0.050372   0.057687   0.000000   0.141648
    5  C  1  Z    0.112218   0.000000   0.000000  -0.021886   0.000000
    6  C  1  S    0.000000  -0.825832  -0.357502   0.000000  -1.570237
    7  C  1  X    0.000000   0.002883  -0.340218   0.000000  -0.523264
    8  C  1  Y    0.000000   0.577995   0.173844   0.000000   0.655678
    9  C  1  Z    0.231524   0.000000   0.000000  -0.155775   0.000000
   10  C  1 XX    0.000000  -0.338440  -0.145565   0.000000  -0.613163
   11  C  1 YY    0.000000  -0.335577  -0.060450   0.000000   0.216676
   12  C  1 ZZ    0.000000   0.659109   0.211278   0.000000   0.511758
   13  C  1 XY    0.000000  -0.082749   0.541032   0.000000   0.352730
   14  C  1 XZ   -0.012482   0.000000   0.000000   0.034838   0.000000
   15  C  1 YZ    0.951471   0.000000   0.000000  -0.520420   0.000000
   16  C  2  S    0.000000  -0.058633   0.010057   0.000000  -0.060144
   17  C  2  S    0.000000  -0.198466   0.232420   0.000000   0.023633
   18  C  2  X    0.000000  -0.251297  -0.195065   0.000000   0.128476
   19  C  2  Y    0.000000   0.102608   0.243688   0.000000   0.125448
   20  C  2  Z    0.126899   0.000000   0.000000   0.113088   0.000000
   21  C  2  S    0.000000   0.198506  -0.465945   0.000000   2.519257
   22  C  2  X    0.000000  -0.571371  -0.477362   0.000000   0.035664
   23  C  2  Y    0.000000  -0.030400  -0.103751   0.000000   1.228053
   24  C  2  Z    0.141986   0.000000   0.000000   0.262681   0.000000
   25  C  2 XX    0.000000   0.515763  -0.267225   0.000000  -0.127983
   26  C  2 YY    0.000000  -0.295223   0.100602   0.000000   0.765852
   27  C  2 ZZ    0.000000  -0.453178   0.299474   0.000000  -0.658087
   28  C  2 XY    0.000000   0.190895  -0.319669   0.000000   0.019930
   29  C  2 XZ    0.202540   0.000000   0.000000   0.898627   0.000000
   30  C  2 YZ    0.358797   0.000000   0.000000   0.032743   0.000000
   31  N  3  S    0.000000  -0.027506  -0.029504   0.000000   0.043750
   32  N  3  S    0.000000  -0.631305  -0.204845   0.000000   0.520478
   33  N  3  X    0.000000   0.338152  -0.152196   0.000000  -0.043584
   34  N  3  Y    0.000000   0.061350  -0.011914   0.000000  -0.013028
   35  N  3  Z    0.026012   0.000000   0.000000  -0.058834   0.000000
   36  N  3  S    0.000000   1.395223   1.190550   0.000000  -1.990631
   37  N  3  X    0.000000  -0.672533  -0.196116   0.000000   0.895740
   38  N  3  Y    0.000000   0.016598   0.529585   0.000000  -0.438923
   39  N  3  Z   -0.208854   0.000000   0.000000  -0.313469   0.000000
   40  N  3 XX    0.000000   0.247615  -0.244767   0.000000  -0.377738
   41  N  3 YY    0.000000  -0.006977   0.854044   0.000000  -0.056268
   42  N  3 ZZ    0.000000  -0.462486  -0.551735   0.000000   0.550908
   43  N  3 XY    0.000000   0.310220   0.171223   0.000000   0.193056
   44  N  3 XZ    0.518448   0.000000   0.000000   0.807579   0.000000
   45  N  3 YZ   -0.077443   0.000000   0.000000   0.188447   0.000000
   46  H  4  S   -0.530104  -0.207395  -0.065732   0.256007  -0.160090
   47  H  4  S    0.101748   0.044060   0.054698  -0.056813   0.033354
   48  H  5  S    0.530104  -0.207395  -0.065732  -0.256007  -0.160090
   49  H  5  S   -0.101748   0.044060   0.054698   0.056813   0.033354
   50  H  6  S    0.000000   0.413099  -0.149228   0.000000   0.245833
   51  H  6  S    0.000000   0.044276  -0.057659   0.000000   0.006402
   52  H  7  S    0.000000  -0.006015   0.116952   0.000000  -0.412418
   53  H  7  S    0.000000  -0.149491  -0.031232   0.000000   0.424586
   54  H  8  S    0.000000  -0.214471  -0.883213   0.000000   0.308526
   55  H  8  S    0.000000  -0.104770   0.019447   0.000000   0.135514

                     51         52         53         54         55
                    2.7725     2.7878     3.7555     4.1003     4.3355
                     A'         A'         A'         A'         A'  
    1  C  1  S    0.042608   0.040828  -0.014228  -0.302867  -0.393432
    2  C  1  S   -0.051439  -0.166401   0.125516   1.743908   2.270637
    3  C  1  X   -0.158529  -0.158174   0.054823   0.039128  -0.103891
    4  C  1  Y    0.188580   0.184895  -0.033270  -0.066622   0.120476
    5  C  1  Z    0.000000   0.000000   0.000000   0.000000   0.000000
    6  C  1  S   -0.910145  -0.470294   0.179889   1.199502   2.498331
    7  C  1  X   -0.392635  -0.172723   0.178813  -0.110318   0.130322
    8  C  1  Y    0.381435   0.239521   0.082581   0.128169  -0.183742
    9  C  1  Z    0.000000   0.000000   0.000000   0.000000   0.000000
   10  C  1 XX   -0.030527   0.260199  -0.035060  -1.086959  -1.595855
   11  C  1 YY   -0.104035  -0.316414  -0.099903  -1.033396  -1.638701
   12  C  1 ZZ    0.217301   0.213616  -0.007450  -1.199787  -1.462562
   13  C  1 XY    0.458465   0.407313  -0.048401  -0.110825   0.166329
   14  C  1 XZ    0.000000   0.000000   0.000000   0.000000   0.000000
   15  C  1 YZ    0.000000   0.000000   0.000000   0.000000   0.000000
   16  C  2  S   -0.033708  -0.064497  -0.063149  -0.369637   0.280899
   17  C  2  S   -0.461279   0.495854   0.668942   2.318028  -1.791069
   18  C  2  X   -0.801292   0.508893   0.229278  -0.177669   0.057733
   19  C  2  Y   -0.042072   0.193556   0.061573  -0.023374   0.128852
   20  C  2  Z    0.000000   0.000000   0.000000   0.000000   0.000000
   21  C  2  S   -0.290168   2.021979  -1.632146   1.282676  -1.449842
   22  C  2  X   -1.143910   0.563781  -1.020771   0.091041   0.363187
   23  C  2  Y    0.339949   0.172293  -0.564184   0.061903  -0.178507
   24  C  2  Z    0.000000   0.000000   0.000000   0.000000   0.000000
   25  C  2 XX   -0.521355   0.910924  -0.090122  -1.638065   1.426042
   26  C  2 YY    0.253934  -0.536359  -0.329423  -1.366016   1.203298
   27  C  2 ZZ    0.018083  -0.537892  -0.228530  -1.400844   1.037719
   28  C  2 XY   -0.888287  -0.558922  -0.001866  -0.105701  -0.175336
   29  C  2 XZ    0.000000   0.000000   0.000000   0.000000   0.000000
   30  C  2 YZ    0.000000   0.000000   0.000000   0.000000   0.000000
   31  N  3  S   -0.038108   0.055596  -0.486173   0.079301  -0.025918
   32  N  3  S   -0.106659   0.105360   0.964629  -0.026657   0.072526
   33  N  3  X   -0.374339   0.337470   0.170975  -0.260562   0.172128
   34  N  3  Y    0.014138   0.105795  -0.054763  -0.019425   0.036548
   35  N  3  Z    0.000000   0.000000   0.000000   0.000000   0.000000
   36  N  3  S    1.519256  -1.763034   4.297496  -0.901540   0.150097
   37  N  3  X   -1.046889   0.997870  -0.884508   0.120865   0.132288
   38  N  3  Y   -0.461159   0.356115   0.291019  -0.106676   0.090629
   39  N  3  Z    0.000000   0.000000   0.000000   0.000000   0.000000
   40  N  3 XX    1.113932  -0.596017  -1.538633   0.478391  -0.322899
   41  N  3 YY   -0.743347   0.167518  -1.512299   0.224123  -0.134265
   42  N  3 ZZ   -0.277538   0.444373  -1.580457   0.234136  -0.008493
   43  N  3 XY   -0.099022  -0.712093  -0.038861   0.076626  -0.096398
   44  N  3 XZ    0.000000   0.000000   0.000000   0.000000   0.000000
   45  N  3 YZ    0.000000   0.000000   0.000000   0.000000   0.000000
   46  H  4  S   -0.008144  -0.013616  -0.018903   0.114899   0.050653
   47  H  4  S    0.020490  -0.022207   0.007113  -0.377915  -0.378785
   48  H  5  S   -0.008144  -0.013616  -0.018903   0.114899   0.050653
   49  H  5  S    0.020490  -0.022207   0.007113  -0.377915  -0.378785
   50  H  6  S   -0.079753  -0.150450   0.042971   0.086214   0.058464
   51  H  6  S   -0.045866   0.149727  -0.028337  -0.299764  -0.418721
   52  H  7  S    0.125982   0.207607   0.068276   0.144011  -0.058229
   53  H  7  S   -0.065384  -0.218936  -0.260199  -0.299478   0.277935
   54  H  8  S    0.352450   0.100824   0.068651  -0.003007   0.050015
   55  H  8  S    0.095086  -0.146469  -0.639464   0.116940  -0.103262
 ...... END OF RHF CALCULATION ......
 STEP CPU TIME =     5.50 TOTAL CPU TIME =          5.5 (      0.1 MIN)
 TOTAL WALL CLOCK TIME=          5.7 SECONDS, CPU UTILIZATION IS    97.70%

     ---------------------------------------------------------------------
     PROPERTIES FOR THE B3LYP    DFT FUNCTIONAL (RHF  TYPE) DENSITY MATRIX
     ---------------------------------------------------------------------

          -----------------
          ENERGY COMPONENTS
          -----------------

         WAVEFUNCTION NORMALIZATION =       1.0000000000

                ONE ELECTRON ENERGY =    -319.3316426650
                TWO ELECTRON ENERGY =     114.8206451333
           NUCLEAR REPULSION ENERGY =      70.6515169287
                                      ------------------
                       TOTAL ENERGY =    -133.8594806029

 ELECTRON-ELECTRON POTENTIAL ENERGY =     114.8206451333
  NUCLEUS-ELECTRON POTENTIAL ENERGY =    -451.9307384175
   NUCLEUS-NUCLEUS POTENTIAL ENERGY =      70.6515169287
                                      ------------------
             TOTAL POTENTIAL ENERGY =    -266.4585763554
               TOTAL KINETIC ENERGY =     132.5990957525
                 VIRIAL RATIO (V/T) =       2.0095052296

          ---------------------------------------
          MULLIKEN AND LOWDIN POPULATION ANALYSES
          ---------------------------------------

     ATOMIC MULLIKEN POPULATION IN EACH MOLECULAR ORBITAL

                      1          2          3          4          5

                  2.000000   2.000000   2.000000   2.000000   2.000000

    1            -0.000008   0.000808   1.997294   0.111960   1.085116
    2            -0.000287   1.998642   0.001094   0.583299   0.310658
    3             2.000305   0.000131   0.000005   1.201890   0.211428
    4            -0.000000   0.000014   0.000539   0.004167   0.112474
    5            -0.000000   0.000014   0.000539   0.004167   0.112474
    6             0.000000  -0.000002   0.000522   0.004055   0.125866
    7             0.000001   0.000396   0.000002   0.012525   0.014051
    8            -0.000010  -0.000001   0.000005   0.077937   0.027932

                      6          7          8          9         10

                  2.000000   2.000000   2.000000   2.000000   2.000000

    1             0.230952   0.376395   0.812590   0.998123   0.599249
    2             0.704650   0.491257   0.485794   0.194766   0.359238
    3             0.449049   0.605104   0.259321   0.062488   0.163581
    4             0.057050   0.079039   0.000557   0.372312   0.129797
    5             0.057050   0.079039   0.000557   0.372312   0.129797
    6             0.014087   0.026129   0.369628   0.000000   0.264801
    7             0.283599   0.091196   0.069828   0.000000   0.296805
    8             0.203562   0.251841   0.001725   0.000000   0.056731

                     11         12

                  2.000000   2.000000

    1             0.097614   0.187953
    2             0.681269   0.118045
    3             1.090151   1.465639
    4             0.065483   0.002410
    5             0.065483   0.002410
    6             0.000000   0.041449
    7             0.000000   0.082487
    8             0.000000   0.099607

               ----- POPULATIONS IN EACH AO -----
                             MULLIKEN      LOWDIN
              1  C  1  S      1.99184     1.97894
              2  C  1  S      0.67895     0.36410
              3  C  1  X      0.71413     0.64141
              4  C  1  Y      0.70973     0.63873
              5  C  1  Z      0.72150     0.64561
              6  C  1  S      0.63859     0.33274
              7  C  1  X      0.33528     0.44303
              8  C  1  Y      0.31790     0.44882
              9  C  1  Z      0.36218     0.48803
             10  C  1 XX      0.00248     0.15181
             11  C  1 YY     -0.00170     0.14647
             12  C  1 ZZ      0.00666     0.15637
             13  C  1 XY      0.00843     0.01439
             14  C  1 XZ      0.00166     0.00285
             15  C  1 YZ      0.01040     0.01981
             16  C  2  S      1.99177     1.97694
             17  C  2  S      0.72402     0.36887
             18  C  2  X      0.74836     0.66238
             19  C  2  Y      0.73727     0.64685
             20  C  2  Z      0.50647     0.45986
             21  C  2  S      0.47647     0.31080
             22  C  2  X      0.13565     0.31040
             23  C  2  Y      0.22684     0.39643
             24  C  2  Z      0.35825     0.39986
             25  C  2 XX      0.00753     0.18882
             26  C  2 YY      0.00898     0.16876
             27  C  2 ZZ     -0.02608     0.10392
             28  C  2 XY      0.02159     0.04989
             29  C  2 XZ      0.00957     0.01847
             30  C  2 YZ      0.00176     0.00311
             31  N  3  S      1.99228     1.97770
             32  N  3  S      0.82244     0.55276
             33  N  3  X      0.88569     0.82142
             34  N  3  Y      0.83746     0.76708
             35  N  3  Z      0.65353     0.60968
             36  N  3  S      0.95545     0.44289
             37  N  3  X      0.43415     0.52155
             38  N  3  Y      0.43728     0.55717
             39  N  3  Z      0.49047     0.52793
             40  N  3 XX     -0.00784     0.19480
             41  N  3 YY      0.01115     0.19656
             42  N  3 ZZ     -0.01605     0.16241
             43  N  3 XY      0.00445     0.01168
             44  N  3 XZ      0.00893     0.01225
             45  N  3 YZ     -0.00029     0.00002
             46  H  4  S      0.52239     0.48145
             47  H  4  S      0.30145     0.34700
             48  H  5  S      0.52239     0.48145
             49  H  5  S      0.30145     0.34700
             50  H  6  S      0.52522     0.48628
             51  H  6  S      0.32132     0.35520
             52  H  7  S      0.52911     0.48982
             53  H  7  S      0.32178     0.36039
             54  H  8  S      0.51479     0.47085
             55  H  8  S      0.20454     0.28619

          ----- MULLIKEN ATOMIC OVERLAP POPULATIONS -----
          (OFF-DIAGONAL ELEMENTS NEED TO BE MULTIPLIED BY 2)

             1           2           3           4           5

    1    5.2407771
    2    0.3403512   4.7429980
    3   -0.0709129   0.6250026   6.7242595
    4    0.3720366  -0.0291229  -0.0053117   0.5293675
    5    0.3720366  -0.0291229  -0.0053117  -0.0241349   0.5293675
    6    0.3425520  -0.0197525   0.0055975  -0.0253660  -0.0253660
    7   -0.0812328   0.3706779  -0.0431934   0.0034469   0.0034469
    8   -0.0175607  -0.0726069   0.2789612   0.0029252   0.0029252

             6           7           8

    6    0.5670698
    7    0.0011726   0.5873685
    8    0.0006284   0.0092048   0.5148518

          TOTAL MULLIKEN AND LOWDIN ATOMIC POPULATIONS
       ATOM         MULL.POP.    CHARGE          LOW.POP.     CHARGE
    1 C             6.498047   -0.498047         6.473104   -0.473104
    2 C             5.928424    0.071576         6.065368   -0.065368
    3 N             7.509091   -0.509091         7.355903   -0.355903
    4 H             0.823841    0.176159         0.828454    0.171546
    5 H             0.823841    0.176159         0.828454    0.171546
    6 H             0.846536    0.153464         0.841477    0.158523
    7 H             0.850892    0.149108         0.850202    0.149798
    8 H             0.719329    0.280671         0.757037    0.242963

          -------------------------------
          BOND ORDER AND VALENCE ANALYSIS     BOND ORDER THRESHOLD=0.050
          -------------------------------

[...]
 PLEASE VERIFY THE PROGRAM'S DECISION MANUALLY!


 MODE(S)     1 TO     1 TREATED AS IMAGINARY.

 MODES    2 TO    7 ARE TAKEN AS ROTATIONS AND TRANSLATIONS.

 ANALYZING SYMMETRY OF NORMAL MODES...

 --- SYMMETRY FOR NORMAL MODES ---
 INCLUDING TRANSLATION AND ROTATION
   16*A'    10*A'' 
 EXCLUDING TRANSLATION AND ROTATION (SAYVETZ < 0.01)
   11*A'     5*A'' 

     FREQUENCIES IN CM**-1, IR INTENSITIES IN DEBYE**2/AMU-ANGSTROM**2,
     REDUCED MASSES IN AMU.

                            1           2           3           4           5
       FREQUENCY:       186.36 I     21.82       15.64       10.36        0.37  
        SYMMETRY:         A''         A''         A'          A''         A'' 
    REDUCED MASS:      1.10937     1.49629     3.23354     3.12433     5.36885
    IR INTENSITY:      0.00002     0.00547     0.10217     0.14038     0.00001

  1   C            X  0.00006695  0.00025019 -0.08121655  0.00010629  0.07895859
                   Y  0.00008664  0.00037162 -0.14545137 -0.00000919  0.07976079
                   Z  0.01452919  0.01049064 -0.00043440  0.18149852  0.10370829
  2   C            X  0.00001405 -0.00001281  0.05843237  0.00038123  0.07927966
                   Y  0.00003475  0.00010909 -0.00601711  0.00026533  0.08008805
                   Z -0.07193331  0.12346536  0.00023241 -0.06414879  0.10181519
  3   N            X  0.00002074  0.00002871  0.03635001  0.00033769  0.07922641
                   Y -0.00001762 -0.00020115  0.15891022  0.00059033  0.08045854
                   Z  0.04988071 -0.11015163 -0.00000550 -0.14416399  0.10243595
  4   H            X  0.32260207  0.13921944 -0.16434722  0.07525760  0.07839819
                   Y  0.28115515  0.23270857 -0.13232124 -0.12708098  0.07789212
                   Z -0.22713480 -0.17307943 -0.00101975  0.26558981  0.10512608
  5   H            X -0.32241233 -0.13840538 -0.16481077 -0.07537339  0.07909428
                   Y -0.28099389 -0.23201191 -0.13388299  0.12711132  0.08170885
                   Z -0.22713667 -0.17307946 -0.00103317  0.26558985  0.10513431
  6   H            X  0.00004662  0.00014474 -0.02520891  0.00021654  0.07908871
                   Y  0.00013248  0.00061788 -0.27628133 -0.00026679  0.07945480
                   Z  0.48960646  0.28099540  0.00020327  0.20517306  0.10238902
  7   H            X -0.00003162 -0.00026808  0.19410460  0.00064851  0.07958544
                   Y  0.00005014  0.00019496 -0.05164083  0.00017543  0.07998469
                   Z -0.32506615  0.44120413  0.00099703 -0.18752800  0.09967849
  8   H            X  0.00006066  0.00027640 -0.09536996  0.00007808  0.07893617
                   Y -0.00002657 -0.00025647  0.18832393  0.00064830  0.08052363
                   Z  0.28097984 -0.40097223 -0.00073401 -0.01538744  0.10447302

 TRANS. SAYVETZ    X  0.00152994  0.00422518 -0.02203109  0.01141265  3.40646642
                   Y  0.00152977  0.00421468 -0.00136859  0.01193201  3.44754326
                   Z  0.00081390  0.03988444 -0.00409984 -0.07293022  4.42154436
               TOTAL  0.00231157  0.04032845  0.02245107  0.07477593  6.56045902

   ROT. SAYVETZ    X  0.01511214 -3.61163504 -0.01977832  6.57837265  0.05423846
                   Y -0.14385963  6.29963476 -0.01019514 11.18467672  0.03299002
                   Z -0.00503887 -0.02726490 14.48661593  0.02853220  0.03324211
               TOTAL  0.14473894  7.26154592 14.48663302 12.97585427  0.07166024

                            6           7           8           9          10
       FREQUENCY:         0.04        0.42      477.24      690.47      941.39  
        SYMMETRY:         A'          A''         A'          A''         A'  
    REDUCED MASS:      5.37826     5.34901     2.25003     1.43639     2.54850
    IR INTENSITY:      0.00000     0.00002     0.18255     0.15626     0.06094

  1   C            X  0.10862716 -0.07153671 -0.11235935 -0.00000343  0.15388030
                   Y -0.10707539 -0.07346521  0.01409971 -0.00000350 -0.07917423
                   Z -0.00059750  0.11436956 -0.00000031  0.02127776  0.00000089
  2   C            X  0.10893845 -0.07170362  0.04268941 -0.00000038 -0.05557005
                   Y -0.10675895 -0.07363794  0.12379829 -0.00000043  0.11457833
                   Z -0.00059140  0.11148447 -0.00000293  0.12747330 -0.00000154
  3   N            X  0.10887863 -0.07167506  0.07992116 -0.00000060 -0.08641893
                   Y -0.10638582 -0.07382690 -0.10365392 -0.00000048  0.00193622
                   Z -0.00059461  0.11161563  0.00000209 -0.09397603  0.00000095
  4   H            X  0.10843274 -0.07116638 -0.29206147 -0.25541394 -0.05806612
                   Y -0.10703513 -0.07561719  0.03624128  0.23371529 -0.08409342
                   Z -0.00060379  0.11588840  0.00321181 -0.12462036  0.02307548
  5   H            X  0.10843136 -0.07167011 -0.29208355  0.25538632 -0.05806335
                   Y -0.10704657 -0.07136324  0.03623942 -0.23372364 -0.08409363
                   Z -0.00059965  0.11588096 -0.00321571 -0.12462286 -0.02307393
  6   H            X  0.10874682 -0.07160493  0.00417023  0.00000176  0.29889947
                   Y -0.10735877 -0.07330407 -0.26051591 -0.00001703 -0.41204929
                   Z -0.00059390  0.11361817  0.00001474 -0.21835487 -0.00000337
  7   H            X  0.10923564 -0.07186010 -0.03080217  0.00000041 -0.17856172
                   Y -0.10685775 -0.07358484  0.14531893 -0.00000078  0.15655889
                   Z -0.00058321  0.10899769  0.00000037 -0.41857257  0.00000413
  8   H            X  0.10858787 -0.07152930  0.32977436 -0.00000064  0.02577215
                   Y -0.10631958 -0.07385969 -0.15928420 -0.00000051 -0.02480777
                   Z -0.00060233  0.11404385  0.00000046  0.42072182 -0.00000787

 TRANS. SAYVETZ    X  4.68310921 -3.08318564 -0.00009914 -0.00008038 -0.00019226
                   Y -4.59454134 -3.16964759 -0.00027821 -0.00008080 -0.00003240
                   Z -0.02559938  4.84608688  0.00000217 -0.00003113 -0.00000001
               TOTAL  6.56063848  6.56027878  0.00029535  0.00011815  0.00019497

   ROT. SAYVETZ    X -0.00016982  0.07921745  0.00000247 -0.00192594  0.00000081
                   Y -0.00006275  0.08638932  0.00001015 -0.00341080 -0.00000019
                   Z  0.03257276 -0.01724740  0.02244970  0.00026528  0.00447368
               TOTAL  0.03257327  0.11847360  0.02244970  0.00392596  0.00447368

                           11          12          13          14          15
       FREQUENCY:      1059.72     1072.54     1154.08     1288.70     1417.78  
        SYMMETRY:         A'          A''         A''         A'          A'  
    REDUCED MASS:      1.44662     1.53376     1.11143     1.30585     1.21003
    IR INTENSITY:      0.32241     0.40287     1.04406     1.78837     0.15064

  1   C            X -0.03859429 -0.00000977  0.00000047  0.02986957  0.06801911
                   Y -0.11825371 -0.00002223  0.00000058  0.06002952 -0.09157080
                   Z -0.00002225  0.12187481  0.02170401 -0.00000065  0.00000002
  2   C            X -0.02944888 -0.00000524  0.00000014 -0.00860983  0.00171634
                   Y  0.10424907  0.00001768 -0.00000023 -0.07469651 -0.03263292
                   Z  0.00002153 -0.11475615 -0.07880037  0.00000039 -0.00000010
  3   N            X -0.01690315 -0.00000291  0.00000015 -0.08297357  0.00501333
                   Y  0.00638749  0.00000140 -0.00000009  0.04574172  0.03040414
                   Z -0.00001031  0.05180760 -0.03902050 -0.00000022  0.00000004
  4   H            X  0.36414966 -0.26608236 -0.04768255 -0.13815489 -0.31992365
                   Y -0.10788440  0.35611726  0.07166442  0.01039620  0.31137442
                   Z -0.05003264 -0.11955018 -0.02331468  0.04956257 -0.23185955
  5   H            X  0.36405375  0.26621062  0.04768047 -0.13815955 -0.31992152
                   Y -0.10776185 -0.35616057 -0.07166271  0.01040301  0.31137329
                   Z  0.05007161 -0.11953316 -0.02331471 -0.04955969  0.23185913
  6   H            X -0.22076036 -0.00004413  0.00000131  0.09519783 -0.14810120
                   Y  0.32908127  0.00006090 -0.00000125 -0.10620474  0.38860289
                   Z  0.00004813 -0.24392839 -0.05224064 -0.00000105  0.00000135
  7   H            X  0.10243182  0.00002372 -0.00000146  0.42801882 -0.30171650
                   Y  0.06227922  0.00000834  0.00000031 -0.22770327  0.06932081
                   Z -0.00001175  0.04672711  0.67634410  0.00000292 -0.00000053
  8   H            X  0.43518857  0.00008374 -0.00000293  0.65277570  0.18946717
                   Y -0.09766987 -0.00001865  0.00000064 -0.14781400 -0.02429600
                   Z  0.00007697 -0.36835009  0.64456183  0.00000118 -0.00000010

 TRANS. SAYVETZ    X  0.00002708 -0.00002780  0.00000420 -0.00004982 -0.00021237
                   Y  0.00004394 -0.00002779  0.00000426 -0.00000894 -0.00005179
                   Z  0.00000053 -0.00004161  0.00003522 -0.00000017 -0.00000013
               TOTAL  0.00005162  0.00005724  0.00003572  0.00005062  0.00021859

   ROT. SAYVETZ    X  0.00000053 -0.00092374 -0.00135122 -0.00000018 -0.00000005
                   Y  0.00000270 -0.00237021  0.00143204 -0.00000095  0.00000021
                   Z  0.00180716  0.00009185 -0.00001375  0.00146783  0.00202596
               TOTAL  0.00180716  0.00254551  0.00196894  0.00146783  0.00202596

                           16          17          18          19          20
       FREQUENCY:      1451.50     1507.45     1517.84     1738.58     3044.67  
        SYMMETRY:         A'          A'          A''         A'          A'  
    REDUCED MASS:      1.22322     1.06337     1.04411     7.98847     1.03708
    IR INTENSITY:      0.51787     0.23220     0.15934     1.48587     0.19337

  1   C            X  0.03386567  0.05766078  0.00000224 -0.02272148  0.02318097
                   Y -0.03751216  0.00904048  0.00000116  0.00285280 -0.04497816
                   Z -0.00000003  0.00000135 -0.05256992  0.00000007 -0.00000005
  2   C            X -0.00666008 -0.01414104 -0.00000032  0.22323283 -0.00169624
                   Y  0.08462571  0.02653257  0.00000061  0.01290268 -0.00165480
                   Z -0.00000002  0.00000069 -0.01940217 -0.00000001 -0.00000001
  3   N            X -0.03009172  0.01753220  0.00000030 -0.15526433 -0.00012100
                   Y -0.06625151 -0.00813140 -0.00000020 -0.01999847  0.00004855
                   Z  0.00000001 -0.00000018  0.00428739  0.00000000  0.00000000
  4   H            X -0.10733320 -0.29601056 -0.47377031  0.00424351  0.06221347
                   Y  0.16761412 -0.39797581 -0.03839809 -0.02790706  0.35408373
                   Z -0.12536196  0.32326289  0.04837540  0.02080986  0.50814819
  5   H            X -0.10733254 -0.29603996  0.47375258  0.00424330  0.06221333
                   Y  0.16761401 -0.39797523  0.03837376 -0.02790768  0.35408287
                   Z  0.12536192 -0.32326448  0.04835407 -0.02081020 -0.50814739
  6   H            X -0.03896307 -0.15490046 -0.00000299 -0.06136230 -0.39163359
                   Y  0.14017794  0.45561741  0.00001244  0.08779443 -0.18021564
                   Z  0.00000041 -0.00002133  0.70554621 -0.00000023 -0.00000004
  7   H            X  0.71633361  0.02820565  0.00000139 -0.10406355  0.01196395
                   Y -0.14428838  0.01809430  0.00000020  0.12483758  0.02762776
                   Z -0.00000007  0.00000094  0.00896352 -0.00000026 -0.00000009
  8   H            X -0.36860624 -0.04303795 -0.00000087 -0.07336504  0.00108790
                   Y  0.02839578  0.01166950  0.00000021 -0.06648769 -0.00100264
                   Z  0.00000003  0.00000039 -0.01384045  0.00000009  0.00000002

 TRANS. SAYVETZ    X -0.00007447 -0.00000267  0.00000701 -0.00014734 -0.00002137
                   Y -0.00003537  0.00001192  0.00000699  0.00006219 -0.00000006
                   Z -0.00000012  0.00000035  0.00000999 -0.00000005  0.00000002
               TOTAL  0.00008244  0.00001222  0.00001406  0.00015993  0.00002137

   ROT. SAYVETZ    X -0.00000017  0.00000055 -0.00049245 -0.00000001  0.00000003
                   Y -0.00000065  0.00000047 -0.00088025 -0.00000006  0.00000010
                   Z  0.00011677  0.00030621 -0.00002262  0.00046988  0.00028189
               TOTAL  0.00011677  0.00030621  0.00100889  0.00046988  0.00028189

                           21          22          23          24
       FREQUENCY:      3093.48     3103.95     3133.38     3360.82  
        SYMMETRY:         A'          A''         A'          A'  
    REDUCED MASS:      1.08841     1.10093     1.10117     1.07409
    IR INTENSITY:      0.80515     0.31601     0.64782     0.34178

  1   C            X  0.01372708 -0.00000063 -0.06752224 -0.00051865
                   Y  0.01454307 -0.00000038 -0.05273886  0.00013470
                   Z  0.00000055 -0.08771115  0.00000117 -0.00000000
  2   C            X -0.02517001 -0.00000022 -0.00555120  0.00504145
                   Y -0.07546079 -0.00000072 -0.01833763 -0.00557401
                   Z  0.00000001 -0.00053473 -0.00000001 -0.00000000
  3   N            X  0.00091945  0.00000001  0.00052474 -0.02122864
                   Y  0.00239189  0.00000004  0.00168264 -0.06518325
                   Z -0.00000000  0.00039918  0.00000000 -0.00000000
  4   H            X -0.00468019  0.06617277  0.01471092 -0.00290937
                   Y -0.04563326  0.39861472  0.15286741  0.00417304
                   Z -0.06839543  0.53558237  0.23088639  0.00184582
  5   H            X -0.00467929 -0.06617261  0.01471234 -0.00290938
                   Y -0.04562788 -0.39861207  0.15287629  0.00417302
                   Z  0.06838866  0.53557826 -0.23090010 -0.00184583
  6   H            X -0.16008270  0.00000890  0.76871966  0.00954815
                   Y -0.07645719  0.00000384  0.33342705  0.00319939
                   Z  0.00000014 -0.01922033  0.00000017 -0.00000001
  7   H            X  0.29076173  0.00000267  0.06423217  0.00056703
                   Y  0.88422862  0.00000814  0.20029668  0.02652663
                   Z  0.00000011 -0.00376612 -0.00000041  0.00000001
  8   H            X  0.00215406  0.00000002  0.00040741  0.23679518
                   Y -0.02439975 -0.00000037 -0.01655217  0.93237718
                   Z -0.00000001 -0.00298380  0.00000021  0.00000001

 TRANS. SAYVETZ    X -0.00000023  0.00000176  0.00000054 -0.00001435
                   Y  0.00000753  0.00000177 -0.00000131  0.00000567
                   Z  0.00000001  0.00000817  0.00000010 -0.00000001
               TOTAL  0.00000753  0.00000855  0.00000142  0.00001542

   ROT. SAYVETZ    X  0.00000015 -0.00029270  0.00000009 -0.00000005
                   Y -0.00000003 -0.00015176  0.00000026 -0.00000002
                   Z  0.00000827 -0.00000577 -0.00009637  0.00030775
               TOTAL  0.00000827  0.00032976  0.00009637  0.00030775

 REFERENCE ON SAYVETZ CONDITIONS - A. SAYVETZ, J.CHEM.PHYS., 7, 383-389(1939).

 NOTE - THE MODES J,K ARE ORTHONORMALIZED ACCORDING TO
 SUM ON I   M(I) * (X(I,J)*X(I,K) + Y(I,J)*Y(I,K) + Z(I,J)*Z(I,K)) = DELTA(J,K)

  MODE FREQ(CM**-1)  SYMMETRY  RED. MASS  IR INTENS.
     1     186.360    A''      1.109367    0.000023
     2      21.824    A''      1.496289    0.005473
     3      15.639    A'       3.233544    0.102171
     4      10.360    A''      3.124328    0.140381
     5       0.372    A''      5.368849    0.000008
     6       0.038    A'       5.378256    0.000001
     7       0.416    A''      5.349006    0.000016
     8     477.242    A'       2.250031    0.182550
     9     690.467    A''      1.436386    0.156262
    10     941.395    A'       2.548502    0.060937
    11    1059.719    A'       1.446620    0.322406
    12    1072.538    A''      1.533764    0.402868
    13    1154.085    A''      1.111433    1.044063
    14    1288.702    A'       1.305848    1.788368
    15    1417.778    A'       1.210028    0.150638
    16    1451.500    A'       1.223222    0.517868
    17    1507.452    A'       1.063370    0.232200
    18    1517.839    A''      1.044113    0.159341
    19    1738.583    A'       7.988472    1.485869
    20    3044.673    A'       1.037077    0.193369
    21    3093.477    A'       1.088409    0.805146
    22    3103.947    A''      1.100932    0.316006
    23    3133.379    A'       1.101165    0.647823
    24    3360.824    A'       1.074091    0.341776

     -------------------------------
     THERMOCHEMISTRY AT T=  298.15 K
     -------------------------------

 USING IDEAL GAS, RIGID ROTOR, HARMONIC NORMAL MODE APPROXIMATIONS.
 P=  1.01325E+05 PASCAL.
 ALL FREQUENCIES ARE SCALED BY   1.00000
 THE MOMENTS OF INERTIA ARE (IN AMU*BOHR**2)
             36.23319           184.90731           209.86662
 THE ROTATIONAL SYMMETRY NUMBER IS  1.0
 THE ROTATIONAL CONSTANTS ARE (IN GHZ)
     49.76345     9.75131     8.59159
   1 IMAGINARY FREQUENCY VIBRATION(S) IS(ARE) EXCLUDED
     FROM THE FOLLOWING THERMOCHEMICAL ANALYSIS.
      8 -     24 VIBRATIONAL MODES ARE USED IN THERMOCHEMISTRY.
 THE HARMONIC ZERO POINT ENERGY IS (SCALED BY   1.000)
        0.068467 HARTREE/MOLECULE    15026.799757 CM**-1/MOLECULE 
       42.963820 KCAL/MOL              179.760621 KJ/MOL

               Q               LN Q
 ELEC.     1.00000E+00       0.000000
 TRANS.    1.10993E+07      16.222392
 ROT.      1.34228E+04       9.504711
 VIB.      1.18941E+00       0.173457
 TOT.      1.77203E+11      25.900559

              E         H         G         CV        CP        S
           KJ/MOL    KJ/MOL    KJ/MOL   J/MOL-K   J/MOL-K   J/MOL-K
 ELEC.      0.000     0.000     0.000     0.000     0.000     0.000
 TRANS.     3.718     6.197   -40.214    12.472    20.786   155.666
 ROT.       3.718     3.718   -23.562    12.472    12.472    91.498
 VIB.     181.118   181.118   179.331    16.607    16.607     5.995
 TOTAL    188.555   191.034   115.555    41.550    49.864   253.159
 VIB. THERMAL CORRECTION E(T)-E(0) = H(T)-H(0) =      1357.545 J/MOL

              E         H         G         CV        CP        S
         KCAL/MOL  KCAL/MOL  KCAL/MOL CAL/MOL-K CAL/MOL-K CAL/MOL-K
 ELEC.      0.000     0.000     0.000     0.000     0.000     0.000
 TRANS.     0.889     1.481    -9.611     2.981     4.968    37.205
 ROT.       0.889     0.889    -5.631     2.981     2.981    21.868
 VIB.      43.288    43.288    42.861     3.969     3.969     1.433
 TOTAL     45.066    45.658    27.618     9.931    11.918    60.506
 VIB. THERMAL CORRECTION E(T)-E(0) = H(T)-H(0) =       324.461 CAL/MOL
 ......END OF NORMAL COORDINATE ANALYSIS......
 STEP CPU TIME =     0.00 TOTAL CPU TIME =        354.7 (      5.9 MIN)
 TOTAL WALL CLOCK TIME=        359.0 SECONDS, CPU UTILIZATION IS    98.79%
               1071827  WORDS OF DYNAMIC MEMORY USED
 EXECUTION OF GAMESS TERMINATED NORMALLY Mon Oct  3 21:28:38 2022
 DDI: 263640 bytes (0.3 MB / 0 MWords) used by master data server.

 ----------------------------------------
 CPU timing information for all processes
 ========================================
 0: 352.36 + 2.638 = 354.675
 ----------------------------------------
 ddikick.x: exited gracefully.
----- accounting info -----
Files used on the master node chemcompute-node-1.novalocal were:
-rw-r--r--. 1 chemcomp chemcomp      877 Oct  3 21:22 /scratch/120478/460047.F05
-rw-rw-r--. 1 chemcomp chemcomp 70451200 Oct  3 21:28 /scratch/120478/460047.F10
-rw-rw-r--. 1 chemcomp chemcomp  4141680 Oct  3 21:28 /scratch/120478/460047.F22
Mon Oct  3 21:28:42 UTC 2022
0.094u 0.039s 6:02.36 0.0%	0+0k 8+208io 0pf+0w
Finishing Up...
Looking for IR data...
Looking for Raman data...
vibramans not found
Looking for thermodynamics data...
Looking for UV-Vis data...
chemcompute.org
{'UTCtimestamp': '2022-10-03T21:28:44.059774', 'cluster': 'jetstream2', 'clusterJobNumber': '120478', 'status': 'COMPLETE', 'nodeList': 'chemcompute-node-1'}
120478
