chemcompute.org
{'UTCtimestamp': '2022-10-03T20:53:11.822611', 'cluster': 'jetstream2', 'clusterJobNumber': '120453', 'status': 'RUNNING', 'nodeList': 'chemcompute-node-1'}
----- GAMESS execution script 'rungms' -----
This job is running on host chemcompute-node-1.novalocal
under operating system Linux at Mon Oct 3 20:53:15 UTC 2022
SLURM has assigned the following compute nodes to this run:
Available scratch disk space (Kbyte units) at beginning of the job is
Filesystem     1K-blocks     Used Available Use% Mounted on
/dev/sda1       62903276 11450068  51453208  19% /
GAMESS temporary binary files will be written to /scratch/120453
GAMESS supplementary output files will be written to /data/slurm/46/460014
Copying input file 460014.inp to your run's scratch directory...
The generated host list is
chemcompute-node-1.novalocal

 Distributed Data Interface kickoff program.
 Initiating 1 compute processes on 1 nodes to run the following command:
 /data/gamess-2019R1-avx2-ddi/gamess.00.x 460014 

          ******************************************************
          *         GAMESS VERSION = 30 JUN 2019 (R1)          *
          *             FROM IOWA STATE UNIVERSITY             *
          * M.W.SCHMIDT, K.K.BALDRIDGE, J.A.BOATZ, S.T.ELBERT, *
          *   M.S.GORDON, J.H.JENSEN, S.KOSEKI, N.MATSUNAGA,   *
          *          K.A.NGUYEN, S.J.SU, T.L.WINDUS,           *
          *       TOGETHER WITH M.DUPUIS, J.A.MONTGOMERY       *
          *         J.COMPUT.CHEM.  14, 1347-1363(1993)        *
          **************** 64 BIT INTEL VERSION ****************

  SINCE 1993, STUDENTS AND POSTDOCS WORKING AT IOWA STATE UNIVERSITY
  AND ALSO IN THEIR VARIOUS JOBS AFTER LEAVING ISU HAVE MADE IMPORTANT
  CONTRIBUTIONS TO THE CODE:
     IVANA ADAMOVIC, CHRISTINE AIKENS, YURI ALEXEEV, POOJA ARORA,
     ANDREY ASADCHEV, ROB BELL, PRADIPTA BANDYOPADHYAY, JONATHAN BENTZ,
     COLLEEN BERTONI, BRETT BODE, KURT BRORSEN, CALEB CARLIN, GALINA CHABAN,
     WEI CHEN, CHEOL HO CHOI, PAUL DAY, ALBERT DEFUSCO, NUWAN DESILVA,
     TIM DUDLEY, DMITRI FEDOROV, ALEX FINDLATER, GRAHAM FLETCHER, 
     MARK FREITAG, KURT GLAESEMANN, ANASTASIA GUNINA,
     DAN KEMP, GRANT MERRILL, NORIYUKI MINEZAWA, JONATHAN MULLIN,
     TAKESHI NAGATA, SEAN NEDD, HEATHER NETZLOFF, BOSILJKA NJEGIC, RYAN OLSON,
     MIKE PAK, BUU PHAM,
     SPENCER PRUITT, LUKE ROSKOP, JIM SHOEMAKER, LYUDMILA SLIPCHENKO,
     TONY SMITH, SAROM SOK LEANG, JIE SONG, TETSUYA TAKETSUGU, SIMON WEBB,
     PENG XU, SOOHAENG YOO, FEDERICO ZAHARIEV

  ADDITIONAL CODE HAS BEEN PROVIDED BY COLLABORATORS IN OTHER GROUPS:
     IOWA STATE UNIVERSITY:
          JOE IVANIC, AARON WEST, LAIMUTIS BYTAUTAS, KLAUS RUEDENBERG
     UNIVERSITY OF TOKYO: KIMIHIKO HIRAO, TAKAHITO NAKAJIMA,
          TAKAO TSUNEDA, MUNEAKI KAMIYA, SUSUMU YANAGISAWA,
          KIYOSHI YAGI, MAHITO CHIBA, SEIKEN TOKURA, NAOAKI KAWAKAMI
     UNIVERSITY OF AARHUS: FRANK JENSEN
     UNIVERSITY OF IOWA: VISVALDAS KAIRYS, HUI LI
     NATIONAL INST. OF STANDARDS AND TECHNOLOGY: WALT STEVENS, DAVID GARMER
     UNIVERSITY OF PISA: BENEDETTA MENNUCCI, JACOPO TOMASI
     UNIVERSITY OF MEMPHIS: HENRY KURTZ, PRAKASHAN KORAMBATH
     UNIVERSITY OF ALBERTA: TOBY ZENG, MARIUSZ KLOBUKOWSKI
     UNIVERSITY OF NEW ENGLAND: MARK SPACKMAN
     MIE UNIVERSITY: HIROAKI UMEDA
     NAT. INST. OF ADVANCED INDUSTRIAL SCIENCE AND TECHNOLOGY: KAZUO KITAURA
     MICHIGAN STATE UNIVERSITY:
          KAROL KOWALSKI, MARTA WLOCH, JEFFREY GOUR, JESSE LUTZ,
          WEI LI, JUN SHEN, J. EMILIANO DEUSTUA, PIOTR PIECUCH
     UNIVERSITY OF MINNESOTA:
          YINAN SHU
     UNIVERSITY OF SILESIA: MONIKA MUSIAL, STANISLAW KUCHARSKI
     FACULTES UNIVERSITAIRES NOTRE-DAME DE LA PAIX:
          OLIVIER QUINET, BENOIT CHAMPAGNE
     UNIVERSITY OF CALIFORNIA - SANTA BARBARA: BERNARD KIRTMAN
     INSTITUTE FOR MOLECULAR SCIENCE:
          KAZUYA ISHIMURA, MICHIO KATOUDA, AND SHIGERU NAGASE
     UNIVERSITY OF NOTRE DAME: ANNA POMOGAEVA, DAN CHIPMAN
     KYUSHU UNIVERSITY:
          HARUYUKI NAKANO,
          FENG LONG GU, JACEK KORCHOWIEC, MARCIN MAKOWSKI, AND YURIKO AOKI,
          HIROTOSHI MORI AND EISAKU MIYOSHI
     PENNSYLVANIA STATE UNIVERSITY:
          TZVETELIN IORDANOV, CHET SWALINA, JONATHAN SKONE,
          SHARON HAMMES-SCHIFFER
     WASEDA UNIVERSITY:
          MASATO KOBAYASHI, TOMOKO AKAMA, TSUGUKI TOUMA,
          TAKESHI YOSHIKAWA, YASUHIRO IKABATA, JUNJI SEINO,
          YUYA NAKAJIMA, HIROMI NAKAI
     NANJING UNIVERSITY: SHUHUA LI
     UNIVERSITY OF NEBRASKA:
          PEIFENG SU, DEJUN SI, NANDUN THELLAMUREGE, YALI WANG, HUI LI
     UNIVERSITY OF ZURICH: ROBERTO PEVERATI, KIM BALDRIDGE
     N. COPERNICUS UNIVERSITY AND JACKSON STATE UNIVERSITY:
          MARIA BARYSZ
     UNIVERSITY OF COPENHAGEN: Jimmy Kromann, CASPER STEINMANN
     TOKYO INSTITUTE OF TECHNOLOGY: HIROYA NAKATA
     NAGOYA UNIVERSITY: YOSHIO NISHIMOTO, STEPHAN IRLE
     MOSCOW STATE UNIVERSITY: VLADIMIR MIRONOV
     A.N.NESMEYANOV INSTITUTE OF ORGANOELEMENT COMPOUNDS OF RUSSIAN ACADEMY OF SCIENCES:
          IGOR S. GERASIMOV

 EXECUTION OF GAMESS BEGUN Mon Oct  3 20:53:15 2022

            ECHO OF THE FIRST FEW INPUT CARDS -
 INPUT CARD>!                                                                               
 INPUT CARD>!   GAMESS Calculation input file                                               
 INPUT CARD>!                                                                               
 INPUT CARD>!                                                                               
 INPUT CARD> $CONTRL SCFTYP=RHF MAXIT=200 RUNTYP=OPTIMIZE                                   
 INPUT CARD>         COORD=UNIQUE MULT=1                                                    
 INPUT CARD>         ICHARG=0                                                               
 INPUT CARD>         DFTTYP=B3LYP                                                           
 INPUT CARD>         MOLPLT=.FALSE. PLTORB=.FALSE.  $END                                    
 INPUT CARD> $SYSTEM TIMLIM=2879 MWORDS=250  $END                                           
 INPUT CARD>                                                                                
 INPUT CARD> $FORCE METHOD=SEMINUM NVIB=2 $END                                              
 INPUT CARD> $STATPT OPTTOL=0.0005 NSTEP=999 $END                                           
 INPUT CARD> $STATPT IHREP=0 HSSEND=.TRUE.  $END                                            
 INPUT CARD>                                                                                
 INPUT CARD> $DFT    METHOD=GRID  NLEB=590  $END                                            
 INPUT CARD>                                                                                
 INPUT CARD> $BASIS  GBASIS=N31 NGAUSS=6                                                    
 INPUT CARD>         NDFUNC=1   NPFUNC=0  $END                                              
 INPUT CARD>                                                                                
 INPUT CARD> $SCF    DIRSCF=.T. $END                                                        
 INPUT CARD> $GUESS  GUESS=HUCKEL  $END                                                     
 INPUT CARD>                                                                                
 INPUT CARD> $DATA                                                                          
 INPUT CARD>                                                                                
 INPUT CARD>  C1                                                                            
 INPUT CARD>O     8.0    -1.29898     0.64798     0.16130                                   
 INPUT CARD>C     6.0    -0.78316    -0.42597    -0.12972                                   
 INPUT CARD>C     6.0     0.68191    -0.66102    -0.14148                                   
 INPUT CARD>C     6.0     1.54386     0.34436     0.08848                                   
 INPUT CARD>H     1.0    -1.38910    -1.30081    -0.40658                                   
 INPUT CARD>H     1.0     1.01949    -1.66680    -0.34599                                   
 INPUT CARD>H     1.0     1.19631     1.35180     0.28913                                   
 INPUT CARD>H     1.0     2.61209     0.17425     0.07907                                   
 INPUT CARD> $END                                                                           
 INPUT CARD>                                                                                
 INPUT CARD>                                                                                
 INPUT CARD>! Customizations after this line are persisted when using Do More Calculations  
  250000000 WORDS OF MEMORY AVAILABLE

     BASIS OPTIONS
     -------------
     GBASIS=N31          IGAUSS=       6      POLAR=POPN31  
     NDFUNC=       1     NFFUNC=       0     DIFFSP=       F
     NPFUNC=       0      DIFFS=       F     BASNAM=        


     RUN TITLE
     ---------
                                                                                 

 THE POINT GROUP OF THE MOLECULE IS C1      
 THE ORDER OF THE PRINCIPAL AXIS IS     0

 ATOM      ATOMIC                      COORDINATES (BOHR)
           CHARGE         X                   Y                   Z
 O           8.0    -2.4547162635        1.2245046455        0.3048128018
 C           6.0    -1.4799578045       -0.8049665790       -0.2451352551
 C           6.0     1.2886230483       -1.2491466724       -0.2673584327
 C           6.0     2.9174723634        0.6507460411        0.1672029554
 H           1.0    -2.6250183695       -2.4581744621       -0.7683247921
 H           1.0     1.9265567472       -3.1497952763       -0.6538262945
 H           1.0     2.2606980964        2.5545315902        0.5463764748
 H           1.0     4.9361343553        0.3292847534        0.1494206338

          INTERNUCLEAR DISTANCES (ANGS.)
          ------------------------------

                1 O          2 C          3 C          4 C          5 H     

   1 O       0.0000000    1.2264304 *  2.3935501 *  2.8599348 *  2.0318444 *
   2 C       1.2264304 *  0.0000000    1.4838520 *  2.4609026 *  1.0996180 *
   3 C       2.3935501 *  1.4838520 *  0.0000000    1.3441088 *  2.1837334 *
   4 C       2.8599348 *  2.4609026 *  1.3441088 *  0.0000000    3.3991062  
   5 H       2.0318444 *  1.0996180 *  2.1837334 *  3.3991062    0.0000000  
   6 H       3.3152455    2.1990859 *  1.0804527 *  2.1233211 *  2.4369911 *
   7 H       2.5957995 *  2.6933628 *  2.1216684 *  1.0844292 *  3.7689119  
   8 H       3.9405140    3.4542119    2.1146898 *  1.0817307 *  4.2919901  

                6 H          7 H          8 H     

   1 O       3.3152455    2.5957995 *  3.9405140  
   2 C       2.1990859 *  2.6933628 *  3.4542119  
   3 C       1.0804527 *  2.1216684 *  2.1146898 *
   4 C       2.1233211 *  1.0844292 *  1.0817307 *
   5 H       2.4369911 *  3.7689119    4.2919901  
   6 H       0.0000000    3.0897554    2.4711366 *
   7 H       3.0897554    0.0000000    1.8534245 *
   8 H       2.4711366 *  1.8534245 *  0.0000000  

  * ... LESS THAN  3.000


     ATOMIC BASIS SET
     ----------------
 THE CONTRACTED PRIMITIVE FUNCTIONS HAVE BEEN UNNORMALIZED
 THE CONTRACTED BASIS FUNCTIONS ARE NOW NORMALIZED TO UNITY

  SHELL TYPE  PRIMITIVE        EXPONENT          CONTRACTION COEFFICIENT(S)

 O         

      1   S       1          5484.6716600    0.001831074430
      1   S       2           825.2349460    0.013950172200
      1   S       3           188.0469580    0.068445078098
      1   S       4            52.9645000    0.232714335992
      1   S       5            16.8975704    0.470192897984
      1   S       6             5.7996353    0.358520852987

      2   L       7            15.5396162   -0.110777549525    0.070874268231
      2   L       8             3.5999336   -0.148026262701    0.339752839147
      2   L       9             1.0137618    1.130767015354    0.727158577316

      3   L      10             0.2700058    1.000000000000    1.000000000000

      4   D      11             0.8000000    1.000000000000

 C         

      5   S      12          3047.5248800    0.001834737132
      5   S      13           457.3695180    0.014037322813
      5   S      14           103.9486850    0.068842622264
      5   S      15            29.2101553    0.232184443216
      5   S      16             9.2866630    0.467941348435
      5   S      17             3.1639270    0.362311985337

      6   L      18             7.8682723   -0.119332419775    0.068999066591
      6   L      19             1.8812885   -0.160854151696    0.316423960957
      6   L      20             0.5442493    1.143456437840    0.744308290898

      7   L      21             0.1687145    1.000000000000    1.000000000000

      8   D      22             0.8000000    1.000000000000

 C         

      9   S      23          3047.5248800    0.001834737132
      9   S      24           457.3695180    0.014037322813
      9   S      25           103.9486850    0.068842622264
      9   S      26            29.2101553    0.232184443216
      9   S      27             9.2866630    0.467941348435
      9   S      28             3.1639270    0.362311985337

     10   L      29             7.8682723   -0.119332419775    0.068999066591
     10   L      30             1.8812885   -0.160854151696    0.316423960957
     10   L      31             0.5442493    1.143456437840    0.744308290898

     11   L      32             0.1687145    1.000000000000    1.000000000000

     12   D      33             0.8000000    1.000000000000

 C         

     13   S      34          3047.5248800    0.001834737132
     13   S      35           457.3695180    0.014037322813
     13   S      36           103.9486850    0.068842622264
     13   S      37            29.2101553    0.232184443216
     13   S      38             9.2866630    0.467941348435
     13   S      39             3.1639270    0.362311985337

     14   L      40             7.8682723   -0.119332419775    0.068999066591
     14   L      41             1.8812885   -0.160854151696    0.316423960957
     14   L      42             0.5442493    1.143456437840    0.744308290898

     15   L      43             0.1687145    1.000000000000    1.000000000000

     16   D      44             0.8000000    1.000000000000

 H         

     17   S      45            18.7311370    0.033494604338
     17   S      46             2.8253944    0.234726953484
     17   S      47             0.6401217    0.813757326146

     18   S      48             0.1612778    1.000000000000

 H         

     19   S      49            18.7311370    0.033494604338
     19   S      50             2.8253944    0.234726953484
     19   S      51             0.6401217    0.813757326146

     20   S      52             0.1612778    1.000000000000

 H         

     21   S      53            18.7311370    0.033494604338
     21   S      54             2.8253944    0.234726953484
     21   S      55             0.6401217    0.813757326146

     22   S      56             0.1612778    1.000000000000

 H         

     23   S      57            18.7311370    0.033494604338
     23   S      58             2.8253944    0.234726953484
     23   S      59             0.6401217    0.813757326146

     24   S      60             0.1612778    1.000000000000

 TOTAL NUMBER OF BASIS SET SHELLS             =   24
 NUMBER OF CARTESIAN GAUSSIAN BASIS FUNCTIONS =   68
 NUMBER OF ELECTRONS                          =   30
 CHARGE OF MOLECULE                           =    0
 SPIN MULTIPLICITY                            =    1
 NUMBER OF OCCUPIED ORBITALS (ALPHA)          =   15
 NUMBER OF OCCUPIED ORBITALS (BETA )          =   15
 TOTAL NUMBER OF ATOMS                        =    8
 THE NUCLEAR REPULSION ENERGY IS      104.2871243716

 SELECTED MURRAY-HANDY-LAMING RADIAL GRID

 LEGACY BECKE'S FUZZY CELL METHOD

 SELECTED ORIGINAL BECKE'S PARTITION FUNCTION

     LEBEDEV GRID-BASED DFT OPTIONS
     ------------------------------
     DFTTYP=B3LYP   
     NRAD  =      96     NLEB  =     590
     NRAD0 =      24     NLEB0 =     110
     SWOFF =    5.00E-03 (PURE SCF -> DFT)
     SWITCH=    3.00E-04 (COARSE -> TIGHT GRID)
     THRESH=    0.00E+00 GTHRE=    1.00E+00

 GRIMME'S EMPIRICAL DISPERSION CORRECTION= F

     $CONTRL OPTIONS
     ---------------
 SCFTYP=RHF          RUNTYP=OPTIMIZE     EXETYP=RUN     
 MPLEVL=       0     CITYP =NONE         CCTYP =NONE         VBTYP =NONE    
 DFTTYP=B3LYP        TDDFT =NONE    
 MULT  =       1     ICHARG=       0     NZVAR =       0     COORD =UNIQUE  
 PP    =NONE         RELWFN=NONE         LOCAL =NONE         NUMGRD=       F
 ISPHER=      -1     NOSYM =       0     MAXIT =     200     UNITS =ANGS    
 PLTORB=       F     MOLPLT=       F     AIMPAC=       F     FRIEND=        
 NPRINT=       7     IREST =       0     GEOM  =INPUT   
 NORMF =       0     NORMP =       0     ITOL  =      20     ICUT  =       9
 INTTYP=BEST         GRDTYP=BEST         QMTTOL= 1.0E-06

     $SYSTEM OPTIONS
     ---------------
  REPLICATED MEMORY=   250000000 WORDS (ON EVERY NODE).
 DISTRIBUTED MEMDDI=           0 MILLION WORDS IN AGGREGATE,
 MEMDDI DISTRIBUTED OVER   1 PROCESSORS IS           0 WORDS/PROCESSOR.
 TOTAL MEMORY REQUESTED ON EACH PROCESSOR=   250000000 WORDS.
 TIMLIM=        2879.00 MINUTES, OR       2.0 DAYS.
 PARALL= F  BALTYP=  DLB     KDIAG=    0  COREFL= F
 MXSEQ2=     300 MXSEQ3=     150  mem10=         0

          ----------------
          PROPERTIES INPUT
          ----------------

     MOMENTS            FIELD           POTENTIAL          DENSITY
 IEMOM =       1   IEFLD =       0   IEPOT =       0   IEDEN =       0
 WHERE =COMASS     WHERE =NUCLEI     WHERE =NUCLEI     WHERE =NUCLEI  
 OUTPUT=BOTH       OUTPUT=BOTH       OUTPUT=BOTH       OUTPUT=BOTH    
 IEMINT=       0   IEFINT=       0                     IEDINT=       0
                                                       MORB  =       0
          EXTRAPOLATION IN EFFECT
          DIIS IN EFFECT
 ORBITAL PRINTING OPTION: NPREO=     1    68     2     1

     -------------------------------
     INTEGRAL TRANSFORMATION OPTIONS
     -------------------------------
     NWORD  =            0
     CUTOFF = 1.0E-09     MPTRAN =       0
     DIRTRF =       T     AOINTS =DUP     

          ----------------------
          INTEGRAL INPUT OPTIONS
          ----------------------
 NOPK  =       1 NORDER=       0 SCHWRZ=       T

     ------------------------------------------
     THE POINT GROUP IS C1 , NAXIS= 0, ORDER= 1
     ------------------------------------------

     DIMENSIONS OF THE SYMMETRY SUBSPACES ARE
 A   =   68

 ..... DONE SETTING UP THE RUN .....
 STEP CPU TIME =     0.01 TOTAL CPU TIME =          0.0 (      0.0 MIN)
 TOTAL WALL CLOCK TIME=          0.0 SECONDS, CPU UTILIZATION IS    50.00%


          -----------------------------
          STATIONARY POINT LOCATION RUN
          -----------------------------

 OBTAINING INITIAL HESSIAN, HESS=GUESS   
 CARTESIAN COORDINATE OPTIMIZATION USING BADGER'S RULE FORCE CONSTANT GUESS

          PARAMETERS CONTROLLING GEOMETRY SEARCH ARE
          METHOD =QA                  UPHESS =BFGS    
          NNEG   =         0          NFRZ   =         0
          NSTEP  =       999          IFOLOW =         1
          HESS   =GUESS               RESTAR =         F
          IHREP  =         0          HSSEND =         T
          NPRT   =         0          NPUN   =         0
          OPTTOL = 5.000E-04          RMIN   = 1.500E-03
          RMAX   = 1.000E-01          RLIM   = 7.000E-02
          DXMAX  = 3.000E-01          PURIFY =         F
          MOVIE  =         F          TRUPD  =         T
          TRMAX  = 5.000E-01          TRMIN  = 5.000E-02
          ITBMAT =         5          STPT   =         F
          STSTEP = 1.000E-02          PROJCT=          T

 BEGINNING GEOMETRY SEARCH POINT NSERCH=   0 ...

 COORDINATES OF ALL ATOMS ARE (ANGS)
   ATOM   CHARGE       X              Y              Z
 ------------------------------------------------------------
 O           8.0  -1.2989800000   0.6479800000   0.1613000000
 C           6.0  -0.7831600000  -0.4259700000  -0.1297200000
 C           6.0   0.6819100000  -0.6610200000  -0.1414800000
 C           6.0   1.5438600000   0.3443600000   0.0884800000
 H           1.0  -1.3891000000  -1.3008100000  -0.4065800000
 H           1.0   1.0194900000  -1.6668000000  -0.3459900000
 H           1.0   1.1963100000   1.3518000000   0.2891300000
 H           1.0   2.6120900000   0.1742500000   0.0790700000

          ********************
          1 ELECTRON INTEGRALS
          ********************
 ...... END OF ONE-ELECTRON INTEGRALS ......
 STEP CPU TIME =     0.00 TOTAL CPU TIME =          0.0 (      0.0 MIN)
 TOTAL WALL CLOCK TIME=          0.0 SECONDS, CPU UTILIZATION IS    25.00%

          -------------
          GUESS OPTIONS
          -------------
          GUESS =HUCKEL            NORB  =       0          NORDER=       0
          MIX   =       F          PRTMO =       F          PUNMO =       F
          TOLZ  = 1.0E-08          TOLE  = 1.0E-05
          SYMDEN=       F          PURIFY=       F

 INITIAL GUESS ORBITALS GENERATED BY HUCKEL   ROUTINE.
 HUCKEL GUESS REQUIRES     42032 WORDS.

 SYMMETRIES FOR INITIAL GUESS ORBITALS FOLLOW.   BOTH SET(S).
    15 ORBITALS ARE OCCUPIED (    4 CORE ORBITALS).
     5=A        6=A        7=A        8=A        9=A       10=A       11=A   
    12=A       13=A       14=A       15=A       16=A       17=A       18=A   
    19=A       20=A       21=A       22=A       23=A       24=A       25=A   
 ...... END OF INITIAL ORBITAL SELECTION ......
 STEP CPU TIME =     0.01 TOTAL CPU TIME =          0.0 (      0.0 MIN)
 TOTAL WALL CLOCK TIME=          0.0 SECONDS, CPU UTILIZATION IS    40.00%

                    ----------------------
                    AO INTEGRAL TECHNOLOGY
                    ----------------------
     S,P,L SHELL ROTATED AXIS INTEGRALS, REPROGRAMMED BY
        KAZUYA ISHIMURA (IMS) AND JOSE SIERRA (SYNSTAR).
     S,P,D,L SHELL ROTATED AXIS INTEGRALS PROGRAMMED BY
        KAZUYA ISHIMURA (INSTITUTE FOR MOLECULAR SCIENCE).
     S,P,D,F,G SHELL TO TOTAL QUARTET ANGULAR MOMENTUM SUM 5,
        ERIC PROGRAM BY GRAHAM FLETCHER (ELORET AND NASA ADVANCED
        SUPERCOMPUTING DIVISION, AMES RESEARCH CENTER).
     S,P,D,F,G,L SHELL GENERAL RYS QUADRATURE PROGRAMMED BY
        MICHEL DUPUIS (PACIFIC NORTHWEST NATIONAL LABORATORY).

          --------------------
          2 ELECTRON INTEGRALS
          --------------------

 DIRECT SCF METHOD SKIPS INTEGRAL STORAGE ON DISK.
 DIRECT TRANSFORMATION SKIPS AO INTEGRAL STORAGE ON DISK.
  ...... END OF TWO-ELECTRON INTEGRALS .....
 STEP CPU TIME =     0.01 TOTAL CPU TIME =          0.0 (      0.0 MIN)
 TOTAL WALL CLOCK TIME=          0.1 SECONDS, CPU UTILIZATION IS    50.00%

          --------------------------
             R-B3LYP SCF CALCULATION
          --------------------------

     NUCLEAR ENERGY =       104.2871243716
     MAXIT =  200     NPUNCH=    2
     EXTRAP=T  DAMP=F  SHIFT=F  RSTRCT=F  DIIS=T  DEM=F  SOSCF=F
         DENSITY MATRIX CONVERGENCE THRESHOLD=  2.00E-05
     COARSE -> FINE DFT GRID SWITCH THRESHOLD=  3.00E-04 (SWITCH IN $DFT)
                   HF -> DFT SWITCH THRESHOLD=  5.00E-03 (SWOFF IN $DFT)
     MEMORY REQUIRED FOR RHF ITERS=    620217 WORDS.

 DIRECT SCF CALCULATION, SCHWRZ=T   FDIFF=T,  DIRTHR=  0.00E+00 NITDIR=10
 SCHWARZ INEQUALITY OVERHEAD:      2344 INTEGRALS, T=        0.00

 DFT CODE IS SWITCHING FROM THE FINE GRID NRAD= 96,  NLEB=  590
                      TO THE COARSE GRID NRAD0= 24, NLEB0=  110

     EXCHANGE FUNCTIONAL   =B88&HFX   
     CORRELATION FUNCTIONAL=LYP88&VWN5
     DFT THRESHOLD         =.883E-08
     GRID CHANGE THRESHOLD =.300E-03
 FOR AN EULER-MACLAURIN QUADRATURE USING  96 RADIAL POINTS:
 SMALLEST GAUSSIAN PRIMITIVE EXPONENT=        0.1612777588 OF TYPE -S-
 ON ATOM NUMBER   5 HAS RADIAL NORMALIZATION=  1.000000
  LARGEST GAUSSIAN PRIMITIVE EXPONENT=     5484.6716600000 OF TYPE -S-
 ON ATOM NUMBER   1 HAS RADIAL NORMALIZATION=  1.000000
 DFT IS SWITCHED OFF, PERFORMING PURE SCF UNTIL SWOFF THRESHOLD IS REACHED.

                                                                                   NONZERO     BLOCKS
 ITER EX DEM     TOTAL ENERGY        E CHANGE  DENSITY CHANGE    DIIS ERROR      INTEGRALS    SKIPPED
   1  0  0     -190.2085759183  -190.2085759183   0.286797578   0.512928543        2642525       3442
          * * *   INITIATING DIIS PROCEDURE   * * *
   2  1  0     -190.6939565355    -0.4853806172   0.152015866   0.105817651        2642040       3740
   3  2  0     -190.7270222644    -0.0330657288   0.077640864   0.098338253        2638807       4209
   4  3  0     -190.7556462182    -0.0286239539   0.013129182   0.008974008        2632755       4636
   5  4  0     -190.7564142357    -0.0007680175   0.006312302   0.003522258        2619446       5313
   6  5  0     -190.7565304471    -0.0001162114   0.002638482   0.001122942        2606557       5907
 CONVERGED TO SWOFF, SO DFT CALCULATION IS NOW SWITCHED ON.
          * * *   INITIATING DIIS PROCEDURE   * * *
   7  6  0     -191.7776117737    -1.0210813266   0.116799175   0.105736795        2642502       3436
   8  7  0     -191.7952075316    -0.0175957579   0.071926989   0.030925241        2639321       4111
   9  8  0     -191.7899760614     0.0052314702   0.056589533   0.045951030        2632754       4552
  10  9  0     -191.7996195105    -0.0096434491   0.009103960   0.010701666        2627656       4867
  11 10  0     -191.7999434481    -0.0003239377   0.001028176   0.000969246        2610488       5642
  12 11  0     -191.7999463736    -0.0000029254   0.000612102   0.000392699        2578018       7058
  13 12  0     -191.7999469809    -0.0000006074   0.000170715   0.000142681        2542602       8271
 DFT CODE IS SWITCHING BACK TO THE FINE GRID
          * * *   INITIATING DIIS PROCEDURE   * * *
  14 13  0     -191.7980685934     0.0018783876   0.002300972   0.001418845        2642746       3385
  15 14  0     -191.7980764927    -0.0000078994   0.000608776   0.000231954        2592815       6660
  16 15  0     -191.7980762165     0.0000002762   0.000422998   0.000359627        2548444       8247
  17 16  0     -191.7980767139    -0.0000004974   0.000085711   0.000081254        2522794       8924
  18 17  0     -191.7980767305    -0.0000000165   0.000027137   0.000021140        2483698      10003
  19 18  0     -191.7980767332    -0.0000000027   0.000006812   0.000003834        2426266      11450
  20 19  0     -191.7980767333    -0.0000000001   0.000003365   0.000002228        2336429      13904

          -----------------
          DENSITY CONVERGED
          -----------------
     TIME TO FORM FOCK OPERATORS=       9.7 SECONDS (       0.5 SEC/ITER)
     FOCK TIME ON FIRST ITERATION=       0.1, LAST ITERATION=       1.1
     TIME TO SOLVE SCF EQUATIONS=       0.1 SECONDS (       0.0 SEC/ITER)

 FINAL R-B3LYP ENERGY IS     -191.7980767333 AFTER  20 ITERATIONS
 DFT EXCHANGE + CORRELATION ENERGY =       -21.1468861008
 TOTAL ELECTRON NUMBER             =        30.0000069250

          ------------
          EIGENVECTORS
          ------------

                      1          2          3          4          5
                  -19.1434   -10.2735   -10.2106   -10.2033    -1.0321
                     A          A          A          A          A   
    1  O  1  S    0.992758  -0.000118   0.000000   0.000049  -0.194681
    2  O  1  S    0.025655   0.000409   0.000001   0.000186   0.425878
    3  O  1  X    0.000484  -0.000032  -0.000008   0.000027   0.069353
    4  O  1  Y   -0.000991   0.000042   0.000011  -0.000027  -0.139392
    5  O  1  Z   -0.000269   0.000008   0.000002  -0.000014  -0.037800
    6  O  1  S    0.013870  -0.002949  -0.000142  -0.001572   0.399688
    7  O  1  X    0.000780  -0.000722  -0.000099  -0.000449   0.026876
    8  O  1  Y   -0.001348   0.001735  -0.000050   0.000239  -0.047111
    9  O  1  Z   -0.000369   0.000487  -0.000013   0.000076  -0.012845
   10  O  1 XX   -0.008007   0.000188  -0.000003   0.000167  -0.006371
   11  O  1 YY   -0.007745  -0.000187   0.000015   0.000204   0.005539
   12  O  1 ZZ   -0.008104   0.000379  -0.000024   0.000073  -0.005161
   13  O  1 XY   -0.000226   0.000244  -0.000001   0.000026  -0.009147
   14  O  1 XZ   -0.000061   0.000061   0.000001   0.000015  -0.002745
   15  O  1 YZ    0.000122  -0.000197   0.000014   0.000048   0.003490
   16  C  2  S    0.000006   0.992829  -0.000139  -0.002185  -0.117471
   17  C  2  S    0.000526   0.048685  -0.000191  -0.000352   0.228376
   18  C  2  X    0.000030  -0.000255  -0.000060  -0.000272  -0.069694
   19  C  2  Y    0.000026   0.000701  -0.000055   0.000043   0.157629
   20  C  2  Z    0.000009   0.000193  -0.000017  -0.000000   0.042858
   21  C  2  S   -0.002904  -0.009100   0.000579   0.005173   0.083206
   22  C  2  X    0.000852  -0.001824   0.000585   0.002205   0.002053
   23  C  2  Y   -0.003181   0.003040   0.000280   0.000947  -0.035271
   24  C  2  Z   -0.000868   0.000782   0.000100   0.000319  -0.009861
   25  C  2 XX   -0.000185  -0.009219   0.000051  -0.000477  -0.010908
   26  C  2 YY   -0.000658  -0.008690  -0.000011  -0.000163   0.014685
   27  C  2 ZZ   -0.000076  -0.009614  -0.000071  -0.000135  -0.016808
   28  C  2 XY    0.000312  -0.000432   0.000021   0.000133  -0.016677
   29  C  2 XZ    0.000086  -0.000108   0.000008   0.000019  -0.004452
   30  C  2 YZ   -0.000198   0.000317   0.000015   0.000006   0.010697
   31  C  3  S   -0.000022   0.001939   0.055320   0.991218  -0.020742
   32  C  3  S   -0.000082   0.000019   0.002310   0.049625   0.036940
   33  C  3  X   -0.000055   0.000328  -0.000258  -0.000035  -0.026032
   34  C  3  Y   -0.000062  -0.000007  -0.000317   0.000178   0.012703
   35  C  3  Z   -0.000018   0.000007  -0.000072   0.000026   0.002455
   36  C  3  S    0.001174   0.002371   0.003227  -0.015961   0.025512
   37  C  3  X    0.000814  -0.002446   0.001561   0.000653   0.005301
   38  C  3  Y    0.001758  -0.001689   0.001097  -0.002611   0.024340
   39  C  3  Z    0.000443  -0.000452   0.000259  -0.000535   0.006120
   40  C  3 XX    0.000019  -0.000565  -0.000819  -0.009262   0.006627
   41  C  3 YY   -0.000032  -0.000218  -0.000787  -0.009225  -0.000243
   42  C  3 ZZ   -0.000047  -0.000132  -0.000659  -0.009585  -0.002519
   43  C  3 XY    0.000099  -0.000011  -0.000050   0.000179  -0.002910
   44  C  3 XZ    0.000022  -0.000011  -0.000013   0.000050  -0.000522
   45  C  3 YZ    0.000004  -0.000027  -0.000033   0.000096   0.000527
   46  C  4  S    0.000005  -0.000034   0.991146  -0.055778  -0.007798
   47  C  4  S    0.000035  -0.000206   0.049170  -0.003292   0.014556
   48  C  4  X    0.000015   0.000016  -0.000009   0.000223  -0.009036
   49  C  4  Y    0.000057  -0.000076  -0.000087   0.000266  -0.003123
   50  C  4  Z    0.000018  -0.000013  -0.000026   0.000060  -0.000758
   51  C  4  S   -0.001564   0.001881  -0.012631   0.006444  -0.011832
   52  C  4  X    0.000659  -0.000892   0.000470  -0.002022   0.002914
   53  C  4  Y    0.000690  -0.000680   0.000760  -0.001276   0.004879
   54  C  4  Z    0.000133  -0.000160   0.000175  -0.000309   0.000892
   55  C  4 XX    0.000009   0.000049  -0.009352   0.000301   0.001278
   56  C  4 YY   -0.000053   0.000086  -0.009343   0.000212  -0.000249
   57  C  4 ZZ    0.000019  -0.000083  -0.009762   0.000430  -0.000923
   58  C  4 XY   -0.000059   0.000079   0.000136  -0.000076   0.000217
   59  C  4 XZ   -0.000010   0.000020   0.000040  -0.000020   0.000078
   60  C  4 YZ   -0.000016   0.000042   0.000108  -0.000058   0.000199
   61  H  5  S   -0.000061  -0.000238   0.000015  -0.000043   0.028451
   62  H  5  S   -0.000639   0.002542   0.000348   0.000344  -0.016713
   63  H  6  S    0.000136  -0.000225  -0.000101  -0.000418   0.006418
   64  H  6  S    0.000399  -0.000555  -0.000020   0.001483   0.006619
   65  H  7  S    0.000118  -0.000108  -0.000336  -0.000124   0.004883
   66  H  7  S   -0.000278   0.000062   0.002088  -0.000523   0.003164
   67  H  8  S    0.000014  -0.000023  -0.000343  -0.000028   0.001823
   68  H  8  S   -0.000123   0.000308   0.002208   0.000017   0.000890

                      6          7          8          9         10
                   -0.7890    -0.6575    -0.5448    -0.5060    -0.4424
                     A          A          A          A          A   
    1  O  1  S    0.044684  -0.057499  -0.055032   0.021840  -0.069401
    2  O  1  S   -0.100595   0.133902   0.124806  -0.049015   0.135549
    3  O  1  X    0.015877  -0.015080   0.012837   0.174605  -0.093281
    4  O  1  Y    0.013126   0.044706   0.126462   0.020837   0.345840
    5  O  1  Z    0.004087   0.011447   0.038835   0.008553   0.100208
    6  O  1  S   -0.112853   0.142456   0.175885  -0.082956   0.330352
    7  O  1  X    0.006705  -0.011988   0.002600   0.094366  -0.037159
    8  O  1  Y    0.002789   0.031840   0.064790   0.013329   0.170540
    9  O  1  Z    0.000945   0.008280   0.019894   0.005190   0.049764
   10  O  1 XX    0.003241  -0.000311   0.001995   0.011179  -0.005418
   11  O  1 YY    0.000409  -0.006165  -0.013028  -0.004399  -0.025278
   12  O  1 ZZ    0.000031   0.000922  -0.000128  -0.001477  -0.004615
   13  O  1 XY   -0.001375   0.003499   0.000560  -0.010282   0.007685
   14  O  1 XZ   -0.000288   0.000845   0.000298  -0.002664   0.002189
   15  O  1 YZ    0.000089  -0.002377  -0.004844  -0.001219  -0.007582
   16  C  2  S   -0.047278   0.119432   0.091904  -0.012793   0.031739
   17  C  2  S    0.094588  -0.251656  -0.198838   0.032243  -0.079978
   18  C  2  X    0.117801  -0.084357   0.133414   0.243837   0.184991
   19  C  2  Y   -0.064933   0.157099   0.127691   0.137005  -0.188670
   20  C  2  Z   -0.015062   0.040544   0.044715   0.043314  -0.041442
   21  C  2  S    0.077415  -0.204609  -0.197395   0.020962  -0.078015
   22  C  2  X    0.024132  -0.020415   0.030781   0.073592   0.041854
   23  C  2  Y   -0.001416   0.066238   0.066182   0.049570  -0.045635
   24  C  2  Z   -0.000107   0.017692   0.021191   0.014266  -0.008415
   25  C  2 XX    0.012056  -0.003898   0.006968   0.000912   0.004619
   26  C  2 YY   -0.007408   0.006705   0.000602  -0.006388   0.000971
   27  C  2 ZZ   -0.004136   0.008613   0.006137  -0.001121   0.005328
   28  C  2 XY    0.004564  -0.006887  -0.013006   0.003370   0.000339
   29  C  2 XZ    0.001858  -0.002754  -0.003589   0.000673   0.000398
   30  C  2 YZ   -0.001064  -0.001035  -0.002551  -0.001980  -0.001500
   31  C  3  S   -0.163754   0.053331  -0.096830   0.001619   0.004650
   32  C  3  S    0.320852  -0.107781   0.199383   0.000654  -0.012295
   33  C  3  X    0.030816   0.190864   0.102339  -0.190695  -0.195112
   34  C  3  Y    0.063712   0.107473  -0.082949   0.234360  -0.197259
   35  C  3  Z    0.013194   0.028558  -0.012173   0.046519  -0.046601
   36  C  3  S    0.218022  -0.091409   0.189834  -0.006806   0.011462
   37  C  3  X    0.004122   0.043600   0.016029  -0.056856  -0.090563
   38  C  3  Y   -0.017650   0.026584  -0.054523   0.074170  -0.069178
   39  C  3  Z   -0.004202   0.006817  -0.010319   0.015216  -0.017036
   40  C  3 XX    0.000372  -0.007505  -0.011432  -0.000006  -0.000592
   41  C  3 YY    0.003312   0.004391   0.006063  -0.005802   0.005116
   42  C  3 ZZ   -0.014986   0.004909  -0.006882   0.000413  -0.000012
   43  C  3 XY    0.004315   0.008560  -0.007592  -0.001397  -0.006066
   44  C  3 XZ    0.001438   0.001239  -0.002052  -0.000406  -0.001190
   45  C  3 YZ    0.004655   0.000097   0.003183  -0.001727   0.001258
   46  C  4  S   -0.142429  -0.127136   0.066870   0.006396   0.005491
   47  C  4  S    0.276618   0.254138  -0.137768  -0.014675  -0.014855
   48  C  4  X   -0.064605   0.043312  -0.105552  -0.228817   0.087990
   49  C  4  Y   -0.073971   0.021222  -0.193794   0.120906   0.275692
   50  C  4  Z   -0.017242   0.005701  -0.041731   0.020382   0.059295
   51  C  4  S    0.220244   0.224860  -0.141455  -0.014888   0.015540
   52  C  4  X   -0.007627   0.021572  -0.047730  -0.087957   0.017458
   53  C  4  Y   -0.005048   0.014412  -0.075193   0.053254   0.083176
   54  C  4  Z   -0.001393   0.003577  -0.015860   0.009133   0.018131
   55  C  4 XX    0.003520   0.002519  -0.005582  -0.002628   0.001087
   56  C  4 YY    0.003789   0.001418   0.001170   0.001655   0.007392
   57  C  4 ZZ   -0.013886  -0.011411   0.005486   0.000264   0.000028
   58  C  4 XY    0.004859  -0.006224   0.012244   0.001962  -0.010107
   59  C  4 XZ    0.001585  -0.000926   0.002110   0.000303  -0.002123
   60  C  4 YZ    0.004574   0.003018  -0.000770   0.000317   0.001568
   61  H  5  S    0.027386  -0.124745  -0.172129  -0.115146  -0.001255
   62  H  5  S    0.009166  -0.039265  -0.088747  -0.081831   0.010650
   63  H  6  S    0.085535  -0.060602   0.145117  -0.155338   0.077560
   64  H  6  S    0.006883  -0.023525   0.069538  -0.111610   0.068753
   65  H  7  S    0.070973   0.099929  -0.134522   0.091473   0.141374
   66  H  7  S    0.006061   0.034207  -0.059019   0.049695   0.129331
   67  H  8  S    0.072706   0.113655  -0.101467  -0.135841   0.023216
   68  H  8  S    0.011763   0.039257  -0.049264  -0.085196   0.024851

                     11         12         13         14         15
                   -0.4205    -0.3893    -0.3841    -0.2816    -0.2536
                     A          A          A          A          A   
    1  O  1  S    0.037015   0.001084   0.028949   0.000442   0.001208
    2  O  1  S   -0.081022  -0.001891  -0.056668  -0.001566  -0.008616
    3  O  1  X    0.264373  -0.032188   0.016907   0.016923   0.529387
    4  O  1  Y   -0.169815  -0.132089  -0.236813   0.088229   0.225950
    5  O  1  Z   -0.010920   0.414378  -0.106017  -0.269578   0.093841
    6  O  1  S   -0.128571  -0.007360  -0.134884  -0.001951   0.021328
    7  O  1  X    0.153402  -0.019359   0.007942   0.012736   0.377033
    8  O  1  Y   -0.099418  -0.079298  -0.129019   0.062496   0.155431
    9  O  1  Z   -0.006608   0.254628  -0.061115  -0.190084   0.065201
   10  O  1 XX    0.009441  -0.001396  -0.000737   0.000563   0.011765
   11  O  1 YY    0.005052   0.013243   0.013061  -0.006440  -0.012480
   12  O  1 ZZ   -0.003041  -0.011172   0.001907   0.005516  -0.003457
   13  O  1 XY   -0.017018  -0.001804  -0.001431   0.000888  -0.010979
   14  O  1 XZ   -0.003458   0.013143  -0.001631  -0.004389  -0.002572
   15  O  1 YZ    0.000247  -0.022029   0.006494   0.010886  -0.004211
   16  C  2  S   -0.027573   0.002423   0.016617  -0.000234  -0.000493
   17  C  2  S    0.072091  -0.005324  -0.030021   0.000273  -0.012643
   18  C  2  X    0.158117  -0.040590  -0.188254  -0.003687  -0.126609
   19  C  2  Y    0.225034  -0.103173   0.144644   0.005815  -0.051778
   20  C  2  Z    0.099347   0.342735   0.007198  -0.042176  -0.019489
   21  C  2  S    0.039095  -0.010007  -0.093527   0.002282   0.045671
   22  C  2  X    0.080382  -0.021162  -0.070815  -0.000006   0.085816
   23  C  2  Y   -0.000128  -0.055750   0.022096   0.011417  -0.016188
   24  C  2  Z    0.019198   0.198128  -0.012234  -0.034685  -0.000351
   25  C  2 XX   -0.012059   0.000828  -0.004518  -0.001307  -0.029319
   26  C  2 YY   -0.001874  -0.008974   0.004308   0.007733   0.029504
   27  C  2 ZZ   -0.002933   0.008911  -0.002743  -0.005957   0.001716
   28  C  2 XY   -0.012773   0.000856  -0.012490  -0.002866   0.033049
   29  C  2 XZ   -0.003511  -0.003506  -0.002999   0.019889   0.007688
   30  C  2 YZ    0.001190   0.016769  -0.000291  -0.013188   0.012079
   31  C  3  S    0.013550  -0.001353  -0.007970   0.000865   0.038324
   32  C  3  S   -0.032255   0.002038   0.008779  -0.000667  -0.074896
   33  C  3  X   -0.152105   0.016187   0.117986  -0.002856   0.214661
   34  C  3  Y   -0.195135  -0.034417  -0.219526  -0.076034  -0.036781
   35  C  3  Z   -0.027063   0.171165  -0.055641   0.360624  -0.013190
   36  C  3  S    0.002834   0.009342   0.066163  -0.011672  -0.326804
   37  C  3  X   -0.012537   0.001607   0.041515  -0.005581   0.152150
   38  C  3  Y   -0.010026  -0.017884  -0.050552  -0.060336  -0.041721
   39  C  3  Z    0.008147   0.091833  -0.015836   0.257059  -0.012806
   40  C  3 XX    0.009459  -0.001494  -0.017661  -0.000320  -0.003355
   41  C  3 YY   -0.001763  -0.000274   0.023257  -0.003327   0.007026
   42  C  3 ZZ   -0.000192   0.001413  -0.000827   0.004006   0.002099
   43  C  3 XY   -0.013148   0.002639  -0.009555  -0.002172   0.000909
   44  C  3 XZ   -0.003560  -0.007021  -0.002137   0.009577  -0.000202
   45  C  3 YZ   -0.000163   0.005214   0.005473   0.009726   0.001494
   46  C  4  S    0.017417  -0.002700   0.004226  -0.000050  -0.002322
   47  C  4  S   -0.038487   0.006332  -0.007981   0.000075  -0.000482
   48  C  4  X    0.319691  -0.043603  -0.179876  -0.009937  -0.033560
   49  C  4  Y    0.067886  -0.004375   0.260780  -0.078028  -0.046394
   50  C  4  Z    0.030210   0.096103   0.042044   0.363286  -0.019773
   51  C  4  S   -0.083739   0.007969  -0.021743   0.004517   0.017892
   52  C  4  X    0.122264  -0.012089  -0.046574  -0.010688  -0.084742
   53  C  4  Y    0.042274  -0.004428   0.119445  -0.057175  -0.061226
   54  C  4  Z    0.016076   0.061155   0.017837   0.248832  -0.019138
   55  C  4 XX    0.015320  -0.002899  -0.021114   0.000388  -0.005365
   56  C  4 YY   -0.006527   0.003842   0.022501   0.004333   0.004028
   57  C  4 ZZ    0.000003  -0.001683   0.001613  -0.004675  -0.000830
   58  C  4 XY   -0.007956   0.001242  -0.006999   0.002083  -0.001834
   59  C  4 XZ   -0.001815  -0.005352  -0.001576  -0.008590  -0.000498
   60  C  4 YZ   -0.002261  -0.003458   0.005350  -0.011014   0.001673
   61  H  5  S   -0.145437   0.008852  -0.031824   0.009339   0.172015
   62  H  5  S   -0.148856   0.009381  -0.030822   0.012516   0.267930
   63  H  6  S    0.074368   0.005220   0.195619   0.000785   0.045707
   64  H  6  S    0.082414   0.005066   0.194100   0.000570   0.082867
   65  H  7  S   -0.034941   0.020483   0.205914  -0.000250   0.003722
   66  H  7  S   -0.027269   0.012854   0.164527   0.003852   0.074783
   67  H  8  S    0.179555  -0.027025  -0.161169  -0.000642  -0.029134
   68  H  8  S    0.160766  -0.028042  -0.156177   0.000660  -0.008982

                     16         17         18         19         20
                   -0.0663     0.0671     0.1067     0.1331     0.1655
                     A          A          A          A          A   
    1  O  1  S   -0.000705   0.002420   0.005261  -0.025475   0.000045
    2  O  1  S    0.000074  -0.003541  -0.018909   0.060096   0.040650
    3  O  1  X   -0.011903  -0.017239  -0.073309   0.056849   0.001588
    4  O  1  Y   -0.096324  -0.067012  -0.025703  -0.030561  -0.097217
    5  O  1  Z    0.319457   0.256412  -0.020834  -0.008082  -0.026433
    6  O  1  S    0.012000  -0.031654  -0.033256   0.254745  -0.221077
    7  O  1  X   -0.010075  -0.022520  -0.105995   0.040930  -0.088645
    8  O  1  Y   -0.096435  -0.073257  -0.043317  -0.147989  -0.056194
    9  O  1  Z    0.313130   0.299927  -0.032325  -0.038386  -0.015924
   10  O  1 XX   -0.000637   0.001217   0.003686  -0.002419   0.014828
   11  O  1 YY    0.000431  -0.002632  -0.003214   0.002206   0.005567
   12  O  1 ZZ   -0.001513   0.004023  -0.003990  -0.003130   0.008122
   13  O  1 XY   -0.000417   0.000157   0.001850  -0.010001   0.006860
   14  O  1 XZ    0.001444  -0.000283   0.000617  -0.002202   0.002360
   15  O  1 YZ   -0.001481   0.005321   0.000053   0.002518  -0.001073
   16  C  2  S    0.000405   0.000205   0.055307   0.054158   0.098420
   17  C  2  S   -0.000004  -0.002618  -0.097191  -0.071039  -0.152047
   18  C  2  X    0.013291   0.016142   0.070150   0.055507   0.088392
   19  C  2  Y    0.095590   0.120473   0.155000   0.090556   0.208282
   20  C  2  Z   -0.329330  -0.390554   0.066008   0.018779   0.065202
   21  C  2  S   -0.009210   0.012537  -0.792485  -1.023264  -1.404817
   22  C  2  X    0.015544   0.012452   0.128143   0.189477   0.117723
   23  C  2  Y    0.081523   0.178079   0.331311   0.163285   0.864651
   24  C  2  Z   -0.310741  -0.524704   0.137866   0.042642   0.242573
   25  C  2 XX    0.000948   0.000110   0.011852  -0.003044   0.014115
   26  C  2 YY   -0.011412  -0.008020  -0.000881   0.007168   0.011131
   27  C  2 ZZ    0.010469   0.008026   0.000385  -0.000085  -0.000845
   28  C  2 XY    0.002794  -0.001864   0.012426  -0.003613  -0.013132
   29  C  2 XZ   -0.016933   0.014491   0.002452  -0.000116  -0.002558
   30  C  2 YZ    0.021980   0.011545  -0.001222   0.002546   0.004623
   31  C  3  S   -0.000470   0.000872   0.043499   0.005880  -0.093394
   32  C  3  S   -0.001344  -0.003704  -0.061383   0.001508   0.152662
   33  C  3  X    0.003180  -0.012591  -0.134960  -0.083108  -0.011753
   34  C  3  Y    0.038829  -0.079011   0.239278  -0.016841  -0.125700
   35  C  3  Z   -0.193829   0.408265   0.031668   0.001700  -0.024943
   36  C  3  S    0.017650   0.001257  -0.792742  -0.118823   1.412475
   37  C  3  X    0.014396  -0.006540  -0.330513  -0.420970  -0.138240
   38  C  3  Y    0.067996  -0.104461   0.497514  -0.172448  -0.678761
   39  C  3  Z   -0.255246   0.633842   0.062389  -0.040317  -0.163757
   40  C  3 XX   -0.001770  -0.001709  -0.014823  -0.007735  -0.007040
   41  C  3 YY   -0.004569   0.006433   0.018420   0.008655  -0.005755
   42  C  3 ZZ    0.005906  -0.005204   0.003684   0.003420  -0.001079
   43  C  3 XY   -0.007300  -0.004842  -0.011682   0.007909  -0.005703
   44  C  3 XZ    0.026346   0.010971  -0.004009   0.001550  -0.001738
   45  C  3 YZ    0.012681  -0.015023   0.004362   0.001819  -0.000455
   46  C  4  S    0.001298   0.004181   0.034817  -0.120974   0.058223
   47  C  4  S   -0.002208  -0.008521  -0.059418   0.186534  -0.102533
   48  C  4  X   -0.005971   0.004898  -0.192734   0.115217   0.066318
   49  C  4  Y   -0.068710   0.058573   0.065195   0.158130  -0.072511
   50  C  4  Z    0.355536  -0.247707   0.016841   0.031030  -0.014876
   51  C  4  S   -0.021741  -0.055042  -0.469039   2.028492  -0.502908
   52  C  4  X   -0.001859   0.006176  -0.462384   0.270425   0.123969
   53  C  4  Y   -0.077627   0.108308   0.036594   0.345030  -0.140524
   54  C  4  Z    0.438927  -0.442482   0.013975   0.073290  -0.021216
   55  C  4 XX   -0.000129   0.001659   0.022762  -0.000251   0.003643
   56  C  4 YY   -0.002255   0.007283  -0.016224  -0.012607   0.006870
   57  C  4 ZZ    0.002654  -0.008292   0.000146  -0.006001   0.002699
   58  C  4 XY   -0.001943   0.003345  -0.000672   0.007948   0.006580
   59  C  4 XZ    0.007880  -0.014081   0.000866   0.001352   0.001016
   60  C  4 YZ    0.005945  -0.020955  -0.003094  -0.001896   0.001208
   61  H  5  S   -0.002686   0.006203   0.047062   0.032089   0.059542
   62  H  5  S   -0.003400   0.029758   0.940511   0.771524   1.617486
   63  H  6  S    0.005122   0.008717   0.071039   0.017815  -0.067608
   64  H  6  S    0.011093   0.049234   1.269241   0.070636  -1.385300
   65  H  7  S    0.000575  -0.001023  -0.039643  -0.096905   0.032984
   66  H  7  S   -0.005421  -0.003617  -0.226669  -1.327884   0.629986
   67  H  8  S    0.001152   0.004009   0.079095  -0.037642   0.022790
   68  H  8  S    0.002739   0.039731   0.998689  -1.173067   0.111055

                     21         22         23         24         25
                    0.1916     0.2607     0.3221     0.3333     0.5157
                     A          A          A          A          A   
    1  O  1  S   -0.012438  -0.102414   0.051371   0.004981   0.006052
    2  O  1  S    0.041784   0.088133  -0.037050   0.012041  -0.028389
    3  O  1  X    0.112446   0.029232  -0.030367  -0.154164  -0.004220
    4  O  1  Y    0.028844  -0.211823  -0.033715   0.002176   0.021481
    5  O  1  Z    0.009560  -0.050920  -0.000764  -0.008673  -0.063211
    6  O  1  S    0.079747   1.968889  -1.233112  -0.108722  -0.082487
    7  O  1  X    0.164397   0.297373  -0.232648  -0.401959  -0.027220
    8  O  1  Y    0.007591  -0.766849   0.380558  -0.063479   0.057766
    9  O  1  Z    0.009415  -0.202564   0.112423  -0.033902  -0.041812
   10  O  1 XX    0.000495  -0.056235   0.024507   0.008488  -0.002915
   11  O  1 YY    0.007036  -0.018668  -0.002018   0.001305  -0.026918
   12  O  1 ZZ    0.002671  -0.062280   0.032352   0.014337   0.016564
   13  O  1 XY   -0.000105  -0.019533   0.031167  -0.014689   0.000052
   14  O  1 XZ    0.000295  -0.005751   0.007917  -0.004221  -0.011643
   15  O  1 YZ    0.002005   0.015270  -0.011656  -0.005553   0.032508
   16  C  2  S    0.021903   0.042124  -0.005123  -0.083422  -0.012732
   17  C  2  S   -0.061753  -0.002340  -0.118793   0.101905   0.002704
   18  C  2  X   -0.239083   0.047517  -0.055869   0.456663   0.069240
   19  C  2  Y   -0.086763  -0.168890   0.015207   0.071725   0.206063
   20  C  2  Z   -0.034333  -0.057694   0.003317   0.046140  -0.631955
   21  C  2  S    0.083233  -1.325036   0.672363   2.076681   0.020136
   22  C  2  X   -0.280692   0.984901  -0.206158   1.961313  -0.090851
   23  C  2  Y   -0.194800  -1.559999   1.429556   0.204452  -0.083817
   24  C  2  Z   -0.074265  -0.434981   0.360173   0.131414   0.698979
   25  C  2 XX    0.009282  -0.014257  -0.005983  -0.023898  -0.023621
   26  C  2 YY    0.004382   0.017642   0.016353   0.003597   0.004640
   27  C  2 ZZ   -0.006284  -0.014958  -0.001453   0.010357   0.005157
   28  C  2 XY    0.001741  -0.019650  -0.027585   0.005560  -0.000928
   29  C  2 XZ    0.001523  -0.004366  -0.008254   0.000074  -0.016042
   30  C  2 YZ    0.003840   0.010713   0.004035  -0.002198  -0.010517
   31  C  3  S   -0.067831   0.031669   0.078696   0.078662   0.013847
   32  C  3  S    0.111591   0.025131  -0.092981  -0.095467  -0.010739
   33  C  3  X   -0.016498  -0.037416  -0.135561   0.298097   0.152134
   34  C  3  Y   -0.124789  -0.007445  -0.262270  -0.139537   0.111823
   35  C  3  Z   -0.026270   0.017652  -0.059409  -0.018839  -0.471100
   36  C  3  S    1.093472  -1.463643  -2.939633  -1.600829  -0.025433
   37  C  3  X    0.315721  -0.244523  -1.437241   2.342293  -0.269106
   38  C  3  Y   -0.625735  -0.197772  -2.523183  -0.826437  -0.239851
   39  C  3  Z   -0.115317   0.000607  -0.581109  -0.128700   0.211751
   40  C  3 XX   -0.032882   0.012938  -0.021283   0.033341   0.007665
   41  C  3 YY    0.023087   0.005280  -0.000601  -0.015114   0.020202
   42  C  3 ZZ    0.001670   0.000128   0.010143  -0.006020  -0.020835
   43  C  3 XY    0.005008   0.037747  -0.004109  -0.028945   0.009653
   44  C  3 XZ    0.000326   0.010460  -0.001665  -0.005571   0.000752
   45  C  3 YZ    0.005398   0.002561  -0.003256  -0.002742  -0.028720
   46  C  4  S    0.008341  -0.015759  -0.074998  -0.003967  -0.001210
   47  C  4  S   -0.005712   0.052980  -0.025887  -0.012207   0.055897
   48  C  4  X   -0.273059  -0.162822   0.004928  -0.076052  -0.053029
   49  C  4  Y    0.234307  -0.165364  -0.032776   0.190450   0.018518
   50  C  4  Z    0.040040  -0.043952  -0.004081   0.041697  -0.582279
   51  C  4  S   -0.127461   0.262097   3.259626  -0.079134   0.156920
   52  C  4  X   -1.064342  -0.496235  -1.998095  -0.775388   0.001922
   53  C  4  Y    1.009679  -0.624617  -2.032142   0.672694  -0.019142
   54  C  4  Z    0.181944  -0.161704  -0.465575   0.122614   0.546221
   55  C  4 XX    0.004718  -0.011378   0.020795  -0.033108   0.000268
   56  C  4 YY   -0.006128   0.009805  -0.014027   0.038625  -0.002628
   57  C  4 ZZ    0.002621  -0.001121  -0.011755  -0.002911   0.011209
   58  C  4 XY    0.008411  -0.009796  -0.037338  -0.021590   0.003484
   59  C  4 XZ    0.001842  -0.003035  -0.006674  -0.005081   0.016434
   60  C  4 YZ   -0.002087   0.000584  -0.001271   0.009710   0.030472
   61  H  5  S    0.028199   0.022911  -0.094437   0.008804  -0.059353
   62  H  5  S   -0.473289  -0.199826   0.375132   0.757645   0.045852
   63  H  6  S    0.019359  -0.106394   0.013064  -0.003973   0.021302
   64  H  6  S   -1.152265   0.133008  -0.936184  -0.895951  -0.066007
   65  H  7  S   -0.054194   0.067652   0.051880   0.132949  -0.014076
   66  H  7  S   -1.443253   0.477867   0.209468  -0.958883  -0.045685
   67  H  8  S    0.047650  -0.005427   0.123704  -0.116978   0.001972
   68  H  8  S    1.531611   0.403272   0.415292   0.677688   0.033432

                     26         27         28         29         30
                    0.5177     0.5814     0.5831     0.5984     0.6462
                     A          A          A          A          A   
    1  O  1  S   -0.026840  -0.002341   0.000640   0.016045  -0.005222
    2  O  1  S    0.115041  -0.075271  -0.063872  -0.033882   0.015241
    3  O  1  X    0.021390  -0.238349  -0.182823   0.135575   0.000161
    4  O  1  Y   -0.034861  -0.044620  -0.008814   0.044050  -0.062327
    5  O  1  Z   -0.029139   0.003649  -0.045797   0.019192   0.069479
    6  O  1  S    0.360954   0.395313   0.297839  -0.270214   0.012316
    7  O  1  X    0.141187  -0.074905  -0.077241  -0.098812   0.018382
    8  O  1  Y   -0.172146  -0.142506  -0.052427   0.173334  -0.047439
    9  O  1  Z   -0.057701   0.037963  -0.115231   0.068801   0.044247
   10  O  1 XX    0.018128  -0.022663  -0.018648  -0.016927   0.005015
   11  O  1 YY    0.018184   0.016075  -0.003514   0.011223  -0.008470
   12  O  1 ZZ    0.005455  -0.038716  -0.006533   0.019462  -0.001389
   13  O  1 XY    0.012414  -0.013269  -0.001852   0.004840   0.003057
   14  O  1 XZ    0.002238   0.018298  -0.027057   0.005365   0.020911
   15  O  1 YZ    0.014039  -0.010612   0.035132  -0.007352  -0.018353
   16  C  2  S    0.059539  -0.015578  -0.014716  -0.014242   0.007285
   17  C  2  S    0.015676  -0.172892  -0.229408  -0.449439  -0.052741
   18  C  2  X   -0.132846  -0.416017  -0.377713  -0.200445   0.050016
   19  C  2  Y   -0.081507  -0.112368   0.201175   0.152108  -0.151044
   20  C  2  Z   -0.160089   0.429476  -0.513639   0.123840   0.237302
   21  C  2  S   -0.177171   0.468363   0.565053   0.831368   0.000121
   22  C  2  X    0.190632   1.354877   1.137312  -0.136592  -0.012858
   23  C  2  Y   -0.490152   0.026391  -0.373694  -0.063105   0.215104
   24  C  2  Z    0.026951  -0.594870   0.720918  -0.162874  -0.680003
   25  C  2 XX    0.113326  -0.029957  -0.034078  -0.077090  -0.003999
   26  C  2 YY    0.006937  -0.028693  -0.020768  -0.053364   0.007781
   27  C  2 ZZ   -0.047109   0.010215  -0.005060   0.026258  -0.003776
   28  C  2 XY    0.011620   0.045232   0.042143  -0.059213  -0.004477
   29  C  2 XZ    0.006031   0.023723  -0.009377  -0.015340  -0.021224
   30  C  2 YZ    0.019644   0.007262  -0.026941  -0.025740   0.013924
   31  C  3  S   -0.058113  -0.017945  -0.025942  -0.038335   0.007002
   32  C  3  S    0.061633  -0.160012  -0.210514  -0.526870  -0.064790
   33  C  3  X   -0.622649   0.229893   0.182275  -0.023966  -0.004984
   34  C  3  Y   -0.039218   0.020366   0.001999   0.080298   0.141103
   35  C  3  Z   -0.140385  -0.065369   0.075818   0.012228  -0.916946
   36  C  3  S    0.070767  -0.389965  -0.209462   1.012402   0.105862
   37  C  3  X    1.106412   0.506141   0.481322  -0.022275   0.017735
   38  C  3  Y    0.791014  -0.068216   0.002783  -0.239422  -0.268701
   39  C  3  Z    0.262891   0.131079  -0.141691  -0.028629   1.506843
   40  C  3 XX   -0.022485  -0.094935  -0.099836  -0.073528   0.001677
   41  C  3 YY   -0.033196   0.005638  -0.030356  -0.123531   0.007365
   42  C  3 ZZ    0.030988   0.017516   0.041958   0.046352  -0.010293
   43  C  3 XY   -0.039277  -0.030513  -0.032817   0.059779   0.003652
   44  C  3 XZ   -0.011145  -0.035590   0.016443   0.005662   0.027617
   45  C  3 YZ   -0.026054  -0.026387   0.006276  -0.047338  -0.013434
   46  C  4  S    0.003098   0.017967   0.015381  -0.013714  -0.011031
   47  C  4  S   -0.217671  -0.243131  -0.272569  -0.367220  -0.064805
   48  C  4  X    0.263351   0.299117   0.231449  -0.142418  -0.028487
   49  C  4  Y    0.469974   0.105587  -0.060293   0.183431  -0.145254
   50  C  4  Z   -0.046300  -0.486860   0.561928  -0.062667   0.437403
   51  C  4  S   -0.703291   0.122914   0.141393   0.592593   0.143861
   52  C  4  X   -0.089693  -0.408204  -0.261577   0.596137   0.049512
   53  C  4  Y   -0.545131   0.326743   0.435325  -0.136728   0.325051
   54  C  4  Z    0.025571   0.606486  -0.518690   0.091818  -0.846820
   55  C  4 XX   -0.015110   0.041088   0.020782  -0.105790  -0.016419
   56  C  4 YY   -0.022943  -0.049789  -0.035438  -0.004189  -0.024746
   57  C  4 ZZ    0.002770  -0.008394  -0.010252   0.033227   0.014560
   58  C  4 XY   -0.038348   0.024332   0.031332   0.022174  -0.006603
   59  C  4 XZ   -0.004494   0.025102  -0.013598   0.004689   0.025540
   60  C  4 YZ    0.000496  -0.001410  -0.013272  -0.008174  -0.001679
   61  H  5  S    0.269573   0.155098   0.082358  -0.396552   0.027083
   62  H  5  S   -0.172300   0.163455   0.126819  -0.053139  -0.006111
   63  H  6  S   -0.128872   0.072383  -0.039724  -0.563956   0.017183
   64  H  6  S    0.285702  -0.213087  -0.175551  -0.007025   0.001164
   65  H  7  S    0.125705  -0.212716  -0.168776  -0.045264  -0.090243
   66  H  7  S    0.243308  -0.215028  -0.167549  -0.014103  -0.062325
   67  H  8  S   -0.035263   0.153727   0.077415  -0.407148  -0.059899
   68  H  8  S   -0.089695   0.011997  -0.008081  -0.206861  -0.008277

                     31         32         33         34         35
                    0.6517     0.6928     0.8059     0.8419     0.8507
                     A          A          A          A          A   
    1  O  1  S   -0.024362   0.033259   0.018876  -0.000873   0.006715
    2  O  1  S    0.043592  -0.125973  -0.114281  -0.151225  -0.396485
    3  O  1  X    0.008249  -0.167277   0.128542   0.077910   0.138575
    4  O  1  Y   -0.208358   0.287044  -0.235495  -0.250117  -0.457214
    5  O  1  Z   -0.078316   0.079686  -0.062264  -0.066681  -0.113401
    6  O  1  S    0.001110   0.302903  -0.715108   0.259119   0.334641
    7  O  1  X    0.102779  -0.044647  -0.634441  -0.131890  -0.306240
    8  O  1  Y   -0.126373   0.148928   0.470305   0.355910   0.837227
    9  O  1  Z   -0.045100   0.040047   0.117196   0.092914   0.218365
   10  O  1 XX    0.020690  -0.015744  -0.129456  -0.054085  -0.116469
   11  O  1 YY   -0.087166   0.101193  -0.040360  -0.091737  -0.201282
   12  O  1 ZZ    0.006239  -0.052582   0.005884  -0.060516  -0.144148
   13  O  1 XY    0.050460  -0.084585   0.070414  -0.002580   0.005025
   14  O  1 XZ    0.009515  -0.022425   0.016275   0.000306   0.001196
   15  O  1 YZ   -0.028111   0.052653  -0.012234  -0.013008  -0.020360
   16  C  2  S    0.034936  -0.038156  -0.005302   0.013203   0.050964
   17  C  2  S   -0.159688   0.615297   0.240794   0.111198  -0.139026
   18  C  2  X    0.289245  -0.311720  -0.567971   0.110229   0.111554
   19  C  2  Y   -0.434810   0.663929  -0.393862   0.102354   0.425129
   20  C  2  Z   -0.180555   0.176848  -0.137299   0.032442   0.126991
   21  C  2  S   -0.149183  -0.430952   1.375731  -0.704232   1.225273
   22  C  2  X   -0.222170   0.337550   2.404983  -0.527169  -0.256340
   23  C  2  Y    0.328370  -0.647787   2.021067  -0.146972  -0.267307
   24  C  2  Z    0.251180  -0.174793   0.647413  -0.056376  -0.091017
   25  C  2 XX   -0.009069   0.081890   0.064852  -0.053807   0.020425
   26  C  2 YY    0.074580  -0.065442   0.053483   0.097268   0.155195
   27  C  2 ZZ   -0.036819   0.032018   0.008648  -0.005530  -0.084286
   28  C  2 XY   -0.042371   0.068332  -0.132963  -0.026507  -0.022188
   29  C  2 XZ   -0.008120   0.023304  -0.032443  -0.008462  -0.001038
   30  C  2 YZ    0.034168  -0.033631   0.011347   0.039067   0.084850
   31  C  3  S    0.043526   0.035315   0.038690  -0.009450  -0.001479
   32  C  3  S   -0.353507  -0.031951   0.305088  -0.027617   0.179343
   33  C  3  X   -0.198573  -0.394102  -0.401689   0.290218  -0.035130
   34  C  3  Y   -0.365516  -0.303617   0.475599  -0.167137   0.200510
   35  C  3  Z    0.084105  -0.091941   0.083490  -0.027307   0.047615
   36  C  3  S    0.612082  -0.335524  -1.603505   0.186862  -0.545987
   37  C  3  X    0.314251   0.190666   1.863098  -1.330809   0.233792
   38  C  3  Y    0.424360   0.390478  -2.159205   1.006751  -0.864757
   39  C  3  Z   -0.186150   0.119022  -0.426722   0.181620  -0.181403
   40  C  3 XX    0.022638  -0.002469  -0.018221  -0.060593   0.012689
   41  C  3 YY    0.019900   0.080124   0.063458   0.050082  -0.030224
   42  C  3 ZZ   -0.036339  -0.027048  -0.018793   0.004772   0.009150
   43  C  3 XY    0.047494   0.022587   0.036014  -0.027685   0.007583
   44  C  3 XZ    0.009069   0.001973   0.008445  -0.006626   0.000376
   45  C  3 YZ    0.020545   0.027498   0.023076   0.011045  -0.010007
   46  C  4  S   -0.068862  -0.058195   0.009157  -0.003306  -0.013953
   47  C  4  S   -0.360463  -0.033798   0.178297   0.026925   0.285280
   48  C  4  X   -0.119313  -0.304234  -0.215538  -0.660817   0.414077
   49  C  4  Y   -0.303134  -0.259707  -0.059649   0.731290  -0.117363
   50  C  4  Z   -0.128492  -0.056515  -0.008675   0.137588  -0.013448
   51  C  4  S    0.781444   0.371603   0.567640  -0.140799  -0.043573
   52  C  4  X    0.184287   0.407878  -0.028816   1.818230  -1.201904
   53  C  4  Y    0.768505   0.011713   0.442743  -1.783558   0.392807
   54  C  4  Z    0.302333   0.001155   0.083273  -0.330074   0.055046
   55  C  4 XX   -0.093068  -0.069297   0.076461   0.078855  -0.053669
   56  C  4 YY   -0.133242  -0.069753  -0.009524  -0.085387   0.067414
   57  C  4 ZZ    0.067752   0.057681  -0.022962   0.011323   0.032558
   58  C  4 XY   -0.011850  -0.042611   0.020829   0.039794   0.055814
   59  C  4 XZ   -0.013696  -0.011253   0.005431   0.009903   0.010078
   60  C  4 YZ   -0.052131  -0.032288   0.005001  -0.023678   0.010427
   61  H  5  S    0.118408   0.100449  -0.355136   0.188281   0.515734
   62  H  5  S    0.079923  -0.038078   2.079374  -0.328469  -0.997022
   63  H  6  S    0.138831   0.168351   0.193239   0.031026  -0.101651
   64  H  6  S    0.016967   0.012661  -1.467643   0.611556  -0.290116
   65  H  7  S   -0.529447  -0.183958  -0.045305  -0.480627  -0.013803
   66  H  7  S   -0.320469   0.176512  -0.313976   1.859553  -0.459881
   67  H  8  S   -0.353953  -0.238550  -0.007216   0.345002  -0.392410
   68  H  8  S   -0.047286  -0.178730  -0.201194  -1.538524   1.175977

                     36         37         38         39         40
                    0.8706     0.9108     0.9562     0.9935     1.0889
                     A          A          A          A          A   
    1  O  1  S   -0.000244   0.007727   0.001329  -0.001148   0.007981
    2  O  1  S   -0.227197  -0.035435   0.163404  -0.008171  -0.088957
    3  O  1  X   -0.055888   0.160430  -0.233773   0.021900  -0.369474
    4  O  1  Y   -0.077131  -0.130678  -0.007875   0.251076   0.065703
    5  O  1  Z   -0.015077  -0.087949  -0.001752  -0.905620  -0.015319
    6  O  1  S    0.621197  -0.315301  -0.318767   0.071904  -0.543126
    7  O  1  X    0.035803  -0.473859   0.221170  -0.001316   0.340412
    8  O  1  Y    0.065825   0.303390  -0.014140  -0.349072  -0.151828
    9  O  1  Z    0.008742   0.136953  -0.013372   1.227091   0.016362
   10  O  1 XX   -0.074121  -0.025606   0.014803  -0.001700  -0.044921
   11  O  1 YY   -0.050891  -0.072303   0.050579  -0.015166  -0.039248
   12  O  1 ZZ   -0.089280   0.030722   0.118128   0.007180   0.075651
   13  O  1 XY    0.024731  -0.007194   0.026243   0.001573   0.021365
   14  O  1 XZ    0.007005  -0.001563   0.001316  -0.004472   0.007655
   15  O  1 YZ    0.014609  -0.034479  -0.025988   0.032873  -0.029357
   16  C  2  S    0.002928   0.005908  -0.035336   0.001054  -0.000460
   17  C  2  S    0.679368  -0.617863  -1.202595   0.050361  -0.360510
   18  C  2  X   -0.202689  -0.154665  -0.081180   0.004604  -0.127378
   19  C  2  Y   -0.229437   0.102535   0.162587  -0.032695  -0.127619
   20  C  2  Z   -0.067970   0.033516   0.040563   0.112869  -0.032277
   21  C  2  S   -1.911195   2.277706   3.652639  -0.229674  -0.114399
   22  C  2  X    0.028406   1.000074   1.019766  -0.105823   0.196031
   23  C  2  Y    0.120668   0.014959  -0.966502   0.106415   1.530542
   24  C  2  Z    0.048420   0.019530  -0.208723  -0.639244   0.374603
   25  C  2 XX    0.048292  -0.062103  -0.060137  -0.001054   0.042313
   26  C  2 YY    0.022484   0.051002  -0.126085   0.002901  -0.038928
   27  C  2 ZZ    0.032840  -0.026479   0.008687   0.000809  -0.020652
   28  C  2 XY   -0.081114  -0.051985  -0.062716  -0.011944   0.086897
   29  C  2 XZ   -0.021283  -0.008749  -0.023334   0.031398   0.057648
   30  C  2 YZ   -0.008105   0.027012  -0.051445  -0.007372  -0.000727
   31  C  3  S   -0.022881   0.000353   0.022067  -0.001180   0.029405
   32  C  3  S    0.689192   0.087392   0.431357  -0.050885   0.924353
   33  C  3  X    0.310558  -0.203467  -0.282081   0.015388   0.163699
   34  C  3  Y   -0.673871  -0.463928  -0.250956   0.021553   0.177448
   35  C  3  Z   -0.140931  -0.102719  -0.055855  -0.049664   0.042167
   36  C  3  S   -0.972914  -0.242753  -0.982479   0.204724  -3.547449
   37  C  3  X   -0.845630   1.462081   2.205646  -0.134606  -2.242238
   38  C  3  Y    1.759507   1.214938   1.185033   0.005957  -1.756515
   39  C  3  Z    0.361269   0.293607   0.303937   0.287410  -0.452340
   40  C  3 XX    0.123543  -0.017130  -0.019612  -0.002543   0.036467
   41  C  3 YY   -0.064080   0.009593   0.091159  -0.009026   0.054579
   42  C  3 ZZ    0.057561   0.027420  -0.012444   0.004617  -0.005388
   43  C  3 XY    0.066712   0.100406   0.061569  -0.010112  -0.025649
   44  C  3 XZ    0.017788   0.019282   0.014576   0.033064  -0.032083
   45  C  3 YZ   -0.027365  -0.002557   0.023386   0.015147   0.026530
   46  C  4  S   -0.000770   0.030803   0.001274  -0.000628  -0.022792
   47  C  4  S    0.234081  -0.290060   1.224700   0.073332  -0.660890
   48  C  4  X    0.168750  -0.431711  -0.016778   0.032498  -0.330023
   49  C  4  Y    0.067644  -0.495534   0.079346   0.016874   0.123425
   50  C  4  Z    0.023806  -0.112954   0.010552   0.048123   0.026325
   51  C  4  S   -0.835612  -0.272121  -3.643568  -0.214381   4.387329
   52  C  4  X    0.154447   1.082687   0.359166  -0.012815   0.655751
   53  C  4  Y   -0.104976   1.322432   0.578873  -0.052657  -2.033755
   54  C  4  Z   -0.032000   0.300415   0.136531  -0.164518  -0.404383
   55  C  4 XX   -0.061111   0.039785   0.095190  -0.002189  -0.128782
   56  C  4 YY    0.060437   0.000316   0.028652   0.012151   0.102815
   57  C  4 ZZ    0.024741  -0.090736   0.040770  -0.000477  -0.049817
   58  C  4 XY    0.005259  -0.142626   0.001549   0.007034   0.066759
   59  C  4 XZ   -0.003223  -0.024719   0.003385  -0.010470   0.009203
   60  C  4 YZ    0.008553   0.018969  -0.003603  -0.027347   0.052287
   61  H  5  S   -0.307499   0.237850  -0.111722  -0.025683   0.488307
   62  H  5  S    0.844808  -0.201677  -0.630758  -0.014672   0.242407
   63  H  6  S   -0.576522  -0.260879   0.032144   0.032410  -0.016698
   64  H  6  S    2.023064   0.840774   0.436241  -0.006061   0.060742
   65  H  7  S   -0.050383   0.526957  -0.277447  -0.017969   0.284812
   66  H  7  S    0.081899  -1.124262   0.701020   0.123078   0.165278
   67  H  8  S   -0.174920   0.526094  -0.141316  -0.035564  -0.446859
   68  H  8  S    0.328158  -1.074496   0.554302   0.092242  -0.967170

                     41         42         43         44         45
                    1.1074     1.1309     1.2738     1.3404     1.4347
                     A          A          A          A          A   
    1  O  1  S    0.000001   0.014586   0.011778  -0.006531  -0.004942
    2  O  1  S    0.067387   0.031469   0.403663  -0.172956  -0.056413
    3  O  1  X   -0.518332  -0.415029  -0.059819  -0.030279   0.010905
    4  O  1  Y   -0.351445  -0.057240  -0.348270   0.067152   0.008351
    5  O  1  Z   -0.118100  -0.016507  -0.077167  -0.011417   0.010138
    6  O  1  S   -0.009265  -0.573590  -0.636031   0.382548   0.230249
    7  O  1  X    1.078910   0.565335   0.208596   0.064021   0.015549
    8  O  1  Y    0.745223   0.142188   0.645497  -0.137894  -0.024217
    9  O  1  Z    0.249917   0.048986   0.114238  -0.168503  -0.111851
   10  O  1 XX   -0.068402   0.023540   0.088673  -0.036472  -0.021024
   11  O  1 YY    0.098242   0.028499   0.161703   0.042170  -0.000565
   12  O  1 ZZ   -0.006714   0.029094   0.040416  -0.131179  -0.031154
   13  O  1 XY    0.062783   0.005128  -0.002214   0.029206  -0.050081
   14  O  1 XZ    0.012133   0.013549   0.013300  -0.051271   0.190883
   15  O  1 YZ    0.039397   0.008766   0.006020  -0.193220  -0.031419
   16  C  2  S   -0.001100   0.027338   0.030278  -0.003242  -0.003640
   17  C  2  S    0.032006   0.609533   0.098393   0.007747  -0.041122
   18  C  2  X    0.322226   0.030570  -0.162498   0.004299   0.011749
   19  C  2  Y    0.230061  -0.171779  -0.102392  -0.009477   0.033022
   20  C  2  Z    0.077971  -0.050337  -0.035862   0.000457  -0.057384
   21  C  2  S    0.939392  -2.512397  -1.913941  -0.174862   0.112639
   22  C  2  X   -1.372883  -1.132490  -1.519117   0.151144   0.054320
   23  C  2  Y   -1.189884   1.427648  -0.413259   0.048075  -0.241906
   24  C  2  Z   -0.388598   0.351031  -0.104376   0.135008   0.004106
   25  C  2 XX    0.101276   0.026058  -0.090768   0.047688  -0.011207
   26  C  2 YY   -0.074171   0.021737   0.021264  -0.041330  -0.151122
   27  C  2 ZZ   -0.026380   0.009134   0.068039  -0.005544   0.158356
   28  C  2 XY   -0.134409   0.024641  -0.037994   0.158725  -0.078335
   29  C  2 XZ   -0.047444   0.048357  -0.075783  -0.495476   0.240032
   30  C  2 YZ   -0.030965   0.022784   0.016969   0.071812   0.281803
   31  C  3  S    0.006804  -0.043942  -0.027908   0.000326   0.001196
   32  C  3  S    0.199354  -1.228011  -0.750097   0.012925   0.029012
   33  C  3  X   -0.077464  -0.062785   0.218874  -0.029673  -0.004937
   34  C  3  Y    0.137291   0.041786  -0.253150   0.025467   0.022205
   35  C  3  Z    0.029990   0.008990  -0.045208   0.007708  -0.128730
   36  C  3  S   -0.064413   5.101153   3.045672  -0.048189  -0.111475
   37  C  3  X    0.550293  -0.503480  -2.187086   0.096784   0.148767
   38  C  3  Y   -0.231564  -0.401047   3.392853  -0.368397   0.100186
   39  C  3  Z   -0.007949  -0.138437   0.659532  -0.080133   0.023224
   40  C  3 XX    0.072518  -0.032364  -0.098377  -0.015523   0.006638
   41  C  3 YY   -0.028018  -0.123511   0.022098  -0.008300  -0.211778
   42  C  3 ZZ   -0.017677   0.011217   0.037839   0.022970   0.207453
   43  C  3 XY   -0.035724   0.106489  -0.029477  -0.113810  -0.004258
   44  C  3 XZ    0.009849  -0.012104   0.044745   0.521874  -0.068685
   45  C  3 YZ   -0.006382  -0.014247  -0.000697   0.029136   0.555975
   46  C  4  S   -0.007949   0.021299   0.015509  -0.001777  -0.000158
   47  C  4  S   -0.724778   0.941007   0.212498   0.021480  -0.020549
   48  C  4  X    0.005675  -0.259608   0.010005  -0.040128   0.021309
   49  C  4  Y   -0.061776  -0.107783   0.078547   0.010005   0.018213
   50  C  4  Z   -0.011455  -0.016231   0.005277  -0.120970  -0.089973
   51  C  4  S    1.516172  -2.433142  -2.186848   0.192657  -0.067166
   52  C  4  X   -0.757042   0.828754   2.393954  -0.093131  -0.069352
   53  C  4  Y    0.747877   0.680223  -1.054826   0.062183   0.068229
   54  C  4  Z    0.123228   0.160371  -0.163975   0.037554   0.016978
   55  C  4 XX    0.003490   0.039837  -0.119742   0.008739   0.023043
   56  C  4 YY   -0.048777   0.068247   0.111375   0.121183   0.038277
   57  C  4 ZZ   -0.046664   0.002309   0.038455  -0.130672  -0.061408
   58  C  4 XY    0.001018  -0.053088  -0.074828   0.028482   0.096719
   59  C  4 XZ   -0.001968  -0.015414  -0.031051  -0.083265  -0.452520
   60  C  4 YZ   -0.008069   0.031188  -0.015369  -0.298078  -0.123446
   61  H  5  S   -0.364565   0.406286  -0.238136   0.072208  -0.039835
   62  H  5  S   -0.932965   0.515514  -0.140054   0.067286  -0.085200
   63  H  6  S   -0.029172  -0.456091   0.726425  -0.095731   0.019233
   64  H  6  S   -0.132569  -0.697627   1.235554  -0.167962   0.031908
   65  H  7  S   -0.035023   0.097485   0.659032  -0.033787  -0.013518
   66  H  7  S   -0.997838   0.115420   0.772422  -0.061413  -0.028122
   67  H  8  S    0.360662   0.116991  -0.469704   0.029675   0.016045
   68  H  8  S   -0.149491   0.045889  -0.588772  -0.006578   0.038186

                     46         47         48         49         50
                    1.5423     1.5633     1.6569     1.7272     1.7997
                     A          A          A          A          A   
    1  O  1  S   -0.002220  -0.102947  -0.000326  -0.042465   0.004053
    2  O  1  S   -0.040266  -1.607378   0.001294  -0.804375   0.129875
    3  O  1  X    0.007825  -0.040040   0.004623  -0.082166   0.251420
    4  O  1  Y    0.039813   0.090126   0.014617   0.028259   0.053652
    5  O  1  Z   -0.104828   0.039238  -0.053036   0.011936   0.027592
    6  O  1  S    0.124672   5.690218  -0.000655   2.823533  -0.321176
    7  O  1  X    0.011494   0.871982  -0.004247   0.572770  -0.435870
    8  O  1  Y   -0.020188  -1.374656  -0.021565  -0.681428  -0.088808
    9  O  1  Z   -0.087170  -0.379000   0.071669  -0.185483  -0.045216
   10  O  1 XX   -0.035724  -0.239075   0.006644  -0.496730  -0.538944
   11  O  1 YY    0.154644  -0.410254   0.102825  -0.284384   0.307415
   12  O  1 ZZ   -0.146288  -0.514996  -0.110842   0.301938   0.315521
   13  O  1 XY   -0.076339   0.272059   0.065501  -0.114813   0.203879
   14  O  1 XZ    0.340194   0.091710  -0.203516  -0.059834   0.018337
   15  O  1 YZ   -0.302177   0.079853  -0.185679  -0.193949   0.016340
   16  C  2  S   -0.001025  -0.022476   0.000365   0.010830   0.021088
   17  C  2  S   -0.004492  -0.259852   0.000909   0.377317  -0.112232
   18  C  2  X    0.017732   0.042277   0.001477   0.259473  -0.022240
   19  C  2  Y    0.055945  -0.020927  -0.002082  -0.026491   0.092922
   20  C  2  Z   -0.173876   0.002304   0.007580   0.005895   0.028952
   21  C  2  S    0.038729  -2.411982  -0.006397  -2.178808  -0.288046
   22  C  2  X    0.064798   0.348193   0.005205  -0.319154   0.580071
   23  C  2  Y   -0.084561  -3.335221   0.057996  -1.531131   0.526034
   24  C  2  Z    0.091012  -0.922997  -0.168393  -0.431941   0.179339
   25  C  2 XX    0.008132   0.225138   0.018769  -0.285914   0.256790
   26  C  2 YY   -0.293848  -0.141661  -0.003630  -0.054070  -0.334693
   27  C  2 ZZ    0.284611  -0.115423  -0.014823   0.407377   0.047658
   28  C  2 XY   -0.032246   0.148430   0.084958  -0.042907  -0.285425
   29  C  2 XZ    0.029700   0.081555  -0.293203  -0.025979  -0.070833
   30  C  2 YZ    0.510342  -0.033492   0.003951  -0.177738  -0.155987
   31  C  3  S    0.002650  -0.021050   0.000186  -0.007425   0.017271
   32  C  3  S    0.045625  -0.573794   0.000987   0.044179  -0.286636
   33  C  3  X   -0.006173  -0.022697  -0.001635  -0.155216   0.294732
   34  C  3  Y   -0.010539  -0.181667  -0.005011  -0.007809   0.001348
   35  C  3  Z    0.090887  -0.040640   0.026896  -0.007227   0.004390
   36  C  3  S   -0.193699   2.259582  -0.010829   0.807424  -0.117585
   37  C  3  X    0.071291   0.628492  -0.019694   0.098095  -0.534191
   38  C  3  Y   -0.107012   2.714765  -0.088740   1.241916  -0.014954
   39  C  3  Z   -0.025931   0.653363   0.164642   0.288963  -0.034543
   40  C  3 XX    0.008558   0.051762   0.003126  -0.280282   0.311498
   41  C  3 YY    0.073605   0.069933   0.028368   0.005723  -0.274300
   42  C  3 ZZ   -0.081491  -0.115920  -0.031047   0.376175  -0.010616
   43  C  3 XY    0.003450  -0.135621   0.014826   0.085445  -0.096848
   44  C  3 XZ   -0.034612  -0.059779  -0.094952  -0.003483  -0.008672
   45  C  3 YZ   -0.227389   0.026106  -0.066103  -0.100147  -0.065255
   46  C  4  S   -0.001053   0.004434  -0.000489   0.015014   0.006026
   47  C  4  S   -0.022317   0.177170   0.002749   0.014050   0.082722
   48  C  4  X    0.002036  -0.038573  -0.007920   0.119157  -0.078884
   49  C  4  Y   -0.025879   0.022210  -0.009628  -0.039545   0.027422
   50  C  4  Z    0.079346   0.019349   0.022873  -0.002529  -0.001709
   51  C  4  S    0.120688  -2.560709   0.045600  -1.155581   0.005371
   52  C  4  X   -0.125166   1.108240  -0.005788   0.104848   0.047983
   53  C  4  Y    0.047573   0.610772   0.009386   0.101366  -0.113055
   54  C  4  Z   -0.063005   0.122307  -0.066014   0.014502  -0.008906
   55  C  4 XX   -0.010696  -0.021266   0.021872  -0.038193  -0.104064
   56  C  4 YY   -0.062096   0.060022  -0.233093  -0.206708   0.135420
   57  C  4 ZZ    0.076764  -0.043939   0.211703   0.282169   0.032736
   58  C  4 XY   -0.060598  -0.093034   0.096252   0.082326  -0.132586
   59  C  4 XZ    0.275930  -0.003866  -0.549171  -0.001197  -0.043398
   60  C  4 YZ    0.147530   0.055363   0.631415  -0.110611   0.008885
   61  H  5  S    0.004442  -0.314999   0.004367   0.051479   0.578902
   62  H  5  S   -0.011150  -0.747358  -0.000393  -0.279630   0.205965
   63  H  6  S   -0.008753   0.251443  -0.014399   0.215946   0.180787
   64  H  6  S   -0.030904   0.606085  -0.017179   0.421053   0.048403
   65  H  7  S   -0.023896   0.144535  -0.002084   0.278777  -0.203774
   66  H  7  S   -0.041133   0.076408  -0.005808   0.066942   0.185781
   67  H  8  S    0.017038   0.037512   0.000118   0.063987   0.063546
   68  H  8  S    0.042194  -0.223693  -0.003761   0.160641   0.015590

                     51         52         53         54         55
                    1.8363     1.9253     1.9932     2.0446     2.1636
                     A          A          A          A          A   
    1  O  1  S    0.001602  -0.015370  -0.000389  -0.014443  -0.006977
    2  O  1  S    0.019432   0.005265  -0.305445  -0.402623  -0.093678
    3  O  1  X   -0.003811   0.016180  -0.039603  -0.151809  -0.010012
    4  O  1  Y    0.001270  -0.082635   0.266185   0.132348  -0.038320
    5  O  1  Z    0.036702  -0.026905   0.077516   0.036137  -0.002648
    6  O  1  S   -0.099642   0.338745   0.492541   1.323681   0.450345
    7  O  1  X   -0.013502   0.153196  -0.016497   0.481754   0.179292
    8  O  1  Y    0.031026  -0.010681  -0.247139  -0.228962  -0.086781
    9  O  1  Z   -0.049944   0.010526  -0.077387  -0.057480  -0.046335
   10  O  1 XX   -0.036588  -0.422685  -0.140136  -0.197422   0.216610
   11  O  1 YY   -0.206830   0.052113   0.110221  -0.344393  -0.056707
   12  O  1 ZZ    0.252070   0.298176  -0.158675   0.303309  -0.192365
   13  O  1 XY   -0.215569  -0.111340   0.182610  -0.428564   0.090686
   14  O  1 XZ    0.669685  -0.061456   0.032293  -0.153290  -0.038075
   15  O  1 YZ    0.380556  -0.108378   0.075443  -0.257396   0.047721
   16  C  2  S   -0.000327   0.001581  -0.021130  -0.000933   0.031893
   17  C  2  S    0.006366   0.186209   0.169200   0.032974   0.262213
   18  C  2  X   -0.007655   0.101852   0.171232  -0.239061   0.076947
   19  C  2  Y   -0.014247  -0.074829   0.132897   0.075091   0.022232
   20  C  2  Z    0.066843  -0.019800   0.036648   0.009574   0.016738
   21  C  2  S    0.015207  -0.923540  -0.524927  -1.409291  -1.103583
   22  C  2  X   -0.017708  -0.649119  -0.013495  -1.038804  -0.498423
   23  C  2  Y    0.055308  -0.265855  -0.124511  -1.343764  -0.167244
   24  C  2  Z    0.130305  -0.116685  -0.013313  -0.397432  -0.008075
   25  C  2 XX    0.000845   0.022513  -0.141905  -0.082962  -0.361304
   26  C  2 YY    0.063393   0.015433   0.096002   0.246988  -0.087552
   27  C  2 ZZ   -0.068775  -0.105973  -0.012124  -0.266780   0.496538
   28  C  2 XY    0.002438   0.174462  -0.455210  -0.033576  -0.103000
[...]

          ATOMIC WEIGHTS (AMU)

    1     O                15.99491
    2     C                12.00000
    3     C                12.00000
    4     C                12.00000
    5     H                 1.00782
    6     H                 1.00782
    7     H                 1.00782
    8     H                 1.00782

 MODES    1 TO    6 ARE TAKEN AS ROTATIONS AND TRANSLATIONS.

 ANALYZING SYMMETRY OF NORMAL MODES...

     FREQUENCIES IN CM**-1, IR INTENSITIES IN DEBYE**2/AMU-ANGSTROM**2,
     REDUCED MASSES IN AMU.

                            1           2           3           4           5
       FREQUENCY:        11.69        4.95        0.05        0.02        0.07  
        SYMMETRY:         A           A           A           A           A   
    REDUCED MASS:      3.49968     4.22759     6.99172     7.00082     7.05717
    IR INTENSITY:      0.14865     0.06821     0.00000     0.00000     0.00001

  1   O            X -0.00748412 -0.06550905  0.12528992  0.03392045 -0.02989480
                   Y -0.04331862 -0.12191978  0.04469509 -0.07743869  0.10036095
                   Z  0.16170146 -0.03732568 -0.00765839  0.10337349  0.08537860
  2   C            X  0.00386203  0.04201238  0.12562155  0.03439336 -0.03089304
                   Y  0.00739767 -0.07477796  0.04488925 -0.07719488  0.10014357
                   Z -0.05893284 -0.01156158 -0.00784746  0.10330721  0.08404832
  3   C            X  0.00690109  0.06455461  0.12569596  0.03448732 -0.03109138
                   Y  0.03701199  0.06460445  0.04537434 -0.07666411  0.09903372
                   Z -0.14547812  0.02422888 -0.00806727  0.10382548  0.08274996
  4   C            X -0.00236151 -0.03502068  0.12540889  0.03403584 -0.03013917
                   Y  0.00242151  0.15059374  0.04561859 -0.07642300  0.09814316
                   Z  0.01883944  0.03075149 -0.00805673  0.10441733  0.08295905
  5   H            X  0.01289944  0.13226864  0.12589029  0.03479379 -0.03173990
                   Y  0.03481972 -0.13665067  0.04470401 -0.07736919  0.10080224
                   Z -0.21290113 -0.01374180 -0.00786250  0.10282892  0.08372706
  6   H            X  0.01711332  0.16589616  0.12597672  0.03493462 -0.03204577
                   Y  0.08755683  0.09360930  0.04550357 -0.07648682  0.09897965
                   Z -0.34975515  0.04492387 -0.00823738  0.10369427  0.08161465
  7   H            X -0.01271521 -0.13536124  0.12511621  0.03359176 -0.02919998
                   Y -0.04851127  0.11911875  0.04546664 -0.07661253  0.09821931
                   Z  0.22201933  0.00958204 -0.00788427  0.10452920  0.08410620
  8   H            X -0.00000830 -0.01976879  0.12545141  0.03409442 -0.03026922
                   Y  0.02320985  0.25266445  0.04595828 -0.07604030  0.09732921
                   Z -0.04278425  0.05682845 -0.00821612  0.10479488  0.08201320

 TRANS. SAYVETZ    X -0.00146396 -0.04510166  7.03108401  1.91604249 -1.70786699
                   Y -0.03306864  0.06626115  2.52853388 -4.31091606  5.57153361
                   Z -0.02687940  0.02236079 -0.44260511  5.81115122  4.69676579
               TOTAL  0.04264013  0.08321481  7.48502006  7.48496457  7.48454443

   ROT. SAYVETZ    X  8.62602942 -0.94582021  0.00638317  0.00571721  0.04788084
                   Y  6.66618515 -4.47603806  0.01819941 -0.06078892  0.13350445
                   Z  2.74621193 18.65179287  0.06159580  0.07223601 -0.15726366
               TOTAL 11.24224568 19.20465751  0.06454461  0.09458340  0.21177317

                            6           7           8           9          10
       FREQUENCY:         8.34      185.75      288.14      561.49      685.17  
        SYMMETRY:         A           A           A           A           A   
    REDUCED MASS:      3.43571     1.84241     3.58208     1.25812     2.77812
    IR INTENSITY:      0.00523     0.16577     0.16434     0.14902     0.25281

  1   O            X  0.00188467 -0.00211945  0.14834593 -0.00470181  0.11083297
                   Y  0.01823238  0.01640426  0.03234572 -0.00561431 -0.03253067
                   Z -0.08076726 -0.08202232  0.00901606  0.02823749 -0.00439870
  2   C            X  0.00276895 -0.00163115  0.00870233  0.00394562 -0.06975180
                   Y  0.02681534 -0.02462686 -0.03441510  0.00635019 -0.09979927
                   Z -0.12058945  0.12016555 -0.00382551 -0.01022269 -0.02353648
  3   C            X  0.00086943  0.00224690 -0.00747921  0.00580960 -0.10001289
                   Y -0.00155175  0.02754847 -0.07336482  0.02504312  0.11119503
                   Z  0.01480608 -0.10923585 -0.02034486 -0.12436992  0.01791755
  4   C            X -0.00562653  0.00177023 -0.15614192 -0.00179827  0.00236190
                   Y -0.04243806 -0.01627207  0.04755288 -0.00732870  0.03978644
                   Z  0.19393789  0.06042233  0.00823594  0.02434260  0.00988892
  5   H            X  0.00484078 -0.00354111 -0.09061168  0.00419623 -0.10668554
                   Y  0.05737494 -0.10704228  0.03193486 -0.06476504 -0.07716506
                   Z -0.26694183  0.50235358  0.02064993  0.31311794 -0.00804742
  6   H            X  0.00426924  0.00454231  0.06740309 -0.00695517  0.03055459
                   Y  0.01207187  0.07894780 -0.04636829 -0.08640141  0.14636831
                   Z -0.03932516 -0.32914286 -0.01818061  0.34086219  0.04757014
  7   H            X -0.00933011 -0.00007918 -0.35759471 -0.00323018  0.35978423
                   Y -0.05542794 -0.08173380 -0.02265411  0.08981770  0.15927583
                   Z  0.24410612  0.33949674 -0.00597548 -0.39572998  0.03420753
  8   H            X -0.00762418  0.00408867 -0.12863736 -0.01416197 -0.04932710
                   Y -0.06368923  0.00848269  0.24088735 -0.13607204 -0.32156796
                   Z  0.29346338 -0.06046816  0.05019569  0.60637643 -0.05474403

 TRANS. SAYVETZ    X -0.00161835 -0.00021870  0.00032712 -0.00003036  0.00008971
                   Y  0.03547255  0.00004051  0.00003688  0.00000926  0.00004395
                   Z -0.00089822  0.00006282  0.00005284  0.00004823  0.00001787
               TOTAL  0.03552080  0.00023112  0.00033341  0.00005774  0.00010148

   ROT. SAYVETZ    X  2.52758403 -0.02022142 -0.01381737  0.01356951  0.00307336
                   Y-15.07834439 -0.02901955 -0.01745711 -0.00617849 -0.00208420
                   Z -3.19174968 -0.00904509  0.00501784 -0.00058180  0.00264289
               TOTAL 15.61833591  0.03650827  0.02282212  0.01492126  0.00455788

                           11          12          13          14          15
       FREQUENCY:       940.45     1001.96     1030.33     1038.84     1077.04  
        SYMMETRY:         A           A           A           A           A   
    REDUCED MASS:      3.17184     1.36075     1.13844     1.63747     1.47258
    IR INTENSITY:      1.43506     0.34253     0.43711     0.28466     0.12268

  1   O            X  0.00047119  0.00019072 -0.00209975 -0.00247647 -0.04177295
                   Y -0.03590512  0.00127865 -0.00318911 -0.00659635  0.02848826
                   Z -0.00799231 -0.00624877  0.02169289  0.03522962  0.00311688
  2   C            X  0.18882589 -0.00026253  0.00115995  0.00467567  0.01600405
                   Y  0.06047381 -0.00470265  0.01882356  0.03359799  0.02157265
                   Z  0.01717441  0.02204255 -0.08478451 -0.14927422  0.01537446
  3   C            X -0.09482390 -0.00152925  0.00302026  0.00033574  0.08098943
                   Y  0.03840394 -0.01469121  0.00015728 -0.02577679 -0.08441097
                   Z  0.00816987  0.06110779 -0.01458271  0.09535377 -0.02125107
  4   C            X -0.09567769  0.00334688 -0.00119156 -0.00469866 -0.09446668
                   Y -0.02898281  0.03216317  0.01178229  0.00110243  0.03388340
                   Z -0.00937684 -0.13428921 -0.04324517  0.00281161  0.00685519
  5   H            X  0.33751528  0.00096497 -0.00594214 -0.00661041 -0.06712108
                   Y -0.03851301  0.01729706 -0.05761347 -0.12537776  0.09207212
                   Z -0.01145154 -0.08284192  0.28795919  0.61353447 -0.01981332
  6   H            X -0.24058868  0.00317842  0.00652648  0.02845906  0.51145846
                   Y  0.00049050  0.06200565 -0.13944959  0.09436672  0.05024909
                   Z  0.00172538 -0.26437329  0.59520065 -0.38403307  0.01891717
  7   H            X  0.04734763 -0.01024608 -0.00220328  0.02123453  0.34904643
                   Y  0.01281852 -0.09388666 -0.14009357  0.04600408  0.17763994
                   Z  0.01078116  0.38706863  0.60765213 -0.15205394  0.04018646
  8   H            X -0.13182807 -0.01544471 -0.00064627 -0.00751072 -0.16050760
                   Y -0.23715616 -0.15775066  0.02146118 -0.01655095 -0.42732059
                   Z -0.06432012  0.66822925 -0.13700583 -0.02800801 -0.10041120

 TRANS. SAYVETZ    X -0.00002821 -0.00000428 -0.00000445 -0.00000706 -0.00000465
                   Y  0.00002703  0.00000049 -0.00001763  0.00000533  0.00000850
                   Z  0.00001276  0.00000856  0.00002696  0.00001477 -0.00000204
               TOTAL  0.00004110  0.00000958  0.00003251  0.00001721  0.00000991

   ROT. SAYVETZ    X  0.00137650 -0.00306335 -0.00118996 -0.00223263  0.00052092
                   Y  0.00218652 -0.00303260 -0.00316453 -0.00082462 -0.00224327
                   Z -0.00186163 -0.00126832 -0.00028563 -0.00037013 -0.00068962
               TOTAL  0.00318454  0.00449326  0.00339290  0.00240866  0.00240399

                           16          17          18          19          20
       FREQUENCY:      1325.34     1445.50     1453.23     1685.57     1806.88  
        SYMMETRY:         A           A           A           A           A   
    REDUCED MASS:      1.32278     1.15934     1.30013     4.69564     7.65250
    IR INTENSITY:      0.06029     0.07188     0.93500     1.65172     2.30428

  1   O            X -0.00193833  0.00116046 -0.00506462  0.02457815  0.06097173
                   Y  0.01337365  0.05967633 -0.04421003 -0.04110736 -0.12422634
                   Z  0.00277965  0.01255202 -0.00941176 -0.00825380 -0.02548857
  2   C            X  0.00524837 -0.04210899  0.07152500 -0.05871452 -0.09962349
                   Y  0.00015924 -0.01751659  0.02721319  0.04688146  0.18571482
                   Z  0.00033710 -0.00383510  0.00701022  0.00869760  0.03822115
  3   C            X -0.03981149 -0.04040897 -0.10010967  0.14367253 -0.03245796
                   Y  0.08815053 -0.05062558 -0.02357975  0.10924103 -0.05003629
                   Z  0.02077259 -0.01237811 -0.00791875  0.02917522 -0.01229899
  4   C            X  0.00375568 -0.01335555  0.00525318 -0.11622492  0.02982995
                   Y -0.10460906 -0.01353991 -0.03171120 -0.12068348  0.03780633
                   Z -0.02509615 -0.00342961 -0.00732692 -0.03173953  0.00970947
  5   H            X  0.11939508  0.57918964 -0.35654311 -0.02370091  0.17594027
                   Y -0.06527856 -0.45196797  0.33496557  0.01240480 -0.02094119
                   Z -0.01222018 -0.08910215  0.06544593  0.00312361 -0.00321488
  6   H            X  0.64367066  0.13052752  0.24318467 -0.16237363  0.12402041
                   Y  0.31187690 -0.00430074  0.08890451  0.03205640 -0.01158954
                   Z  0.08711841  0.00045201  0.02545985  0.00530890 -0.00032731
  7   H            X -0.36857834  0.35886138  0.37390029  0.25450125 -0.07185760
                   Y -0.23571762  0.11736913  0.10019332 -0.01323075  0.01436924
                   Z -0.06518260  0.03545365  0.03118088  0.00336291  0.00257400
  8   H            X  0.00312390  0.05459705  0.09775796 -0.08626344  0.02183397
                   Y -0.02903568  0.36438301  0.51192281  0.19924006 -0.07586510
                   Z -0.00635751  0.08787378  0.12536409  0.04617659 -0.01873957

 TRANS. SAYVETZ    X  0.00003001  0.00004392  0.00011754 -0.00005401  0.00011202
                   Y  0.00002175  0.00001551  0.00002434  0.00003348  0.00006678
                   Z  0.00000715  0.00000318  0.00002129  0.00000631  0.00003025
               TOTAL  0.00003775  0.00004668  0.00012191  0.00006386  0.00013388

   ROT. SAYVETZ    X  0.00077031  0.00052544 -0.00129547  0.00000628  0.00018139
                   Y -0.00021694  0.00095690 -0.00140438 -0.00044533  0.00014756
                   Z -0.00266037  0.00175687  0.00066262  0.00177233 -0.00049486
               TOTAL  0.00277813  0.00206842  0.00202227  0.00182744  0.00054732

                           21          22          23          24
       FREQUENCY:      2923.68     3169.37     3183.83     3261.02  
        SYMMETRY:         A           A           A           A   
    REDUCED MASS:      1.08441     1.05975     1.09098     1.11770
    IR INTENSITY:      3.67088     0.17910     0.27459     0.08383

  1   O            X  0.00133443  0.00001715  0.00012273  0.00003226
                   Y -0.00122662  0.00057093 -0.00022606 -0.00031875
                   Z -0.00024376  0.00011859 -0.00006123 -0.00006707
  2   C            X -0.04922623 -0.00121908 -0.00449544  0.00026171
                   Y -0.06167302 -0.00200121 -0.00176622  0.00042399
                   Z -0.01358541 -0.00044063 -0.00041524  0.00010032
  3   C            X  0.00070022  0.01541301  0.01800800 -0.00222345
                   Y  0.00278085 -0.03324378 -0.07010844  0.00868617
                   Z  0.00068027 -0.00757116 -0.01631719  0.00202315
  4   C            X -0.00029163 -0.03854313  0.01691251 -0.07335198
                   Y -0.00013015 -0.03824099  0.03241861  0.05770538
                   Z -0.00003494 -0.01014706  0.00822085  0.01215197
  5   H            X  0.55601508  0.00977687  0.02750291 -0.00027574
                   Y  0.75946236  0.01128406  0.02729778  0.00090099
                   Z  0.16660466  0.00248089  0.00604297  0.00014156
  6   H            X  0.00356641 -0.14602405 -0.25704871  0.02757534
                   Y -0.04316300  0.43168612  0.76389526 -0.08858301
                   Z -0.01020642  0.09960341  0.17616595 -0.02050847
  7   H            X  0.00051428 -0.19450313  0.13321815  0.21004303
                   Y  0.00770241  0.52312704 -0.35954188 -0.60776627
                   Z  0.00185885  0.12145926 -0.08341836 -0.14145642
  8   H            X  0.00001088  0.62046289 -0.26788616  0.65888762
                   Y -0.00178035 -0.10017776  0.04172385 -0.09504442
                   Z -0.00031620 -0.00920466  0.00352430 -0.00708381

 TRANS. SAYVETZ    X  0.00002183  0.00006345  0.00000003 -0.00000539
                   Y -0.00001485 -0.00000457 -0.00000919  0.00000978
                   Z -0.00000307  0.00000674 -0.00000289  0.00000356
               TOTAL  0.00002658  0.00006397  0.00000963  0.00001173

   ROT. SAYVETZ    X -0.00051220  0.00014744  0.00019639  0.00000111
                   Y  0.00028812  0.00013769  0.00003632  0.00014106
                   Z  0.00047170  0.00013638  0.00008854 -0.00012686
               TOTAL  0.00075356  0.00024351  0.00021846  0.00018972

 REFERENCE ON SAYVETZ CONDITIONS - A. SAYVETZ, J.CHEM.PHYS., 7, 383-389(1939).

 NOTE - THE MODES J,K ARE ORTHONORMALIZED ACCORDING TO
 SUM ON I   M(I) * (X(I,J)*X(I,K) + Y(I,J)*Y(I,K) + Z(I,J)*Z(I,K)) = DELTA(J,K)

  MODE FREQ(CM**-1)  SYMMETRY  RED. MASS  IR INTENS.
     1      11.690    A        3.499678    0.148652
     2       4.954    A        4.227594    0.068214
     3       0.047    A        6.991718    0.000003
     4       0.019    A        7.000818    0.000002
     5       0.073    A        7.057173    0.000014
     6       8.345    A        3.435708    0.005231
     7     185.747    A        1.842411    0.165770
     8     288.144    A        3.582076    0.164345
     9     561.486    A        1.258125    0.149024
    10     685.170    A        2.778118    0.252814
    11     940.454    A        3.171844    1.435060
    12    1001.965    A        1.360753    0.342529
    13    1030.325    A        1.138443    0.437113
    14    1038.836    A        1.637468    0.284661
    15    1077.043    A        1.472582    0.122680
    16    1325.344    A        1.322784    0.060288
    17    1445.497    A        1.159340    0.071880
    18    1453.229    A        1.300135    0.935004
    19    1685.571    A        4.695639    1.651716
    20    1806.879    A        7.652498    2.304278
    21    2923.683    A        1.084407    3.670881
    22    3169.369    A        1.059745    0.179096
    23    3183.835    A        1.090978    0.274586
    24    3261.018    A        1.117698    0.083834

     -------------------------------
     THERMOCHEMISTRY AT T=  298.15 K
     -------------------------------

 USING IDEAL GAS, RIGID ROTOR, HARMONIC NORMAL MODE APPROXIMATIONS.
 P=  1.01325E+05 PASCAL.
 ALL FREQUENCIES ARE SCALED BY   1.00000
 THE MOMENTS OF INERTIA ARE (IN AMU*BOHR**2)
             79.07029           290.53994           369.58928
 THE ROTATIONAL SYMMETRY NUMBER IS  1.0
 THE ROTATIONAL CONSTANTS ARE (IN GHZ)
     22.80361     6.20599     4.87863
      7 -     24 VIBRATIONAL MODES ARE USED IN THERMOCHEMISTRY.
 THE HARMONIC ZERO POINT ENERGY IS (SCALED BY   1.000)
        0.061655 HARTREE/MOLECULE    13531.796872 CM**-1/MOLECULE 
       38.689388 KCAL/MOL              161.876397 KJ/MOL

               Q               LN Q
 ELEC.     1.00000E+00       0.000000
 TRANS.    1.64832E+07      16.617850
 ROT.      3.29846E+04      10.403795
 VIB.      2.60830E+00       0.958700
 TOT.      1.41811E+12      27.980345

              E         H         G         CV        CP        S
           KJ/MOL    KJ/MOL    KJ/MOL   J/MOL-K   J/MOL-K   J/MOL-K
 ELEC.      0.000     0.000     0.000     0.000     0.000     0.000
 TRANS.     3.718     6.197   -41.195    12.472    20.786   158.954
 ROT.       3.718     3.718   -25.790    12.472    12.472    98.973
 VIB.     165.868   165.868   159.500    32.260    32.260    21.358
 TOTAL    173.305   175.783    92.515    57.203    65.517   279.285
 VIB. THERMAL CORRECTION E(T)-E(0) = H(T)-H(0) =      3991.338 J/MOL

              E         H         G         CV        CP        S
         KCAL/MOL  KCAL/MOL  KCAL/MOL CAL/MOL-K CAL/MOL-K CAL/MOL-K
 ELEC.      0.000     0.000     0.000     0.000     0.000     0.000
 TRANS.     0.889     1.481    -9.846     2.981     4.968    37.991
 ROT.       0.889     0.889    -6.164     2.981     2.981    23.655
 VIB.      39.643    39.643    38.121     7.710     7.710     5.105
 TOTAL     41.421    42.013    22.112    13.672    15.659    66.751
 VIB. THERMAL CORRECTION E(T)-E(0) = H(T)-H(0) =       953.953 CAL/MOL
 ......END OF NORMAL COORDINATE ANALYSIS......
 STEP CPU TIME =     0.00 TOTAL CPU TIME =        806.1 (     13.4 MIN)
 TOTAL WALL CLOCK TIME=        835.8 SECONDS, CPU UTILIZATION IS    96.44%
               1080583  WORDS OF DYNAMIC MEMORY USED
 EXECUTION OF GAMESS TERMINATED NORMALLY Mon Oct  3 21:07:11 2022
 DDI: 263640 bytes (0.3 MB / 0 MWords) used by master data server.

 ----------------------------------------
 CPU timing information for all processes
 ========================================
 0: 800.423 + 5.678 = 806.102
 ----------------------------------------
 ddikick.x: exited gracefully.
----- accounting info -----
Files used on the master node chemcompute-node-1.novalocal were:
-rw-r--r--. 1 chemcomp chemcomp      985 Oct  3 20:53 /scratch/120453/460014.F05
-rw-rw-r--. 1 chemcomp chemcomp 70451200 Oct  3 21:07 /scratch/120453/460014.F10
-rw-rw-r--. 1 chemcomp chemcomp  4143136 Oct  3 21:07 /scratch/120453/460014.F22
Mon Oct  3 21:07:14 UTC 2022
0.097u 0.037s 13:59.20 0.0%	0+0k 8+208io 0pf+0w
Finishing Up...
Looking for IR data...
Looking for Raman data...
vibramans not found
Looking for thermodynamics data...
Looking for UV-Vis data...
chemcompute.org
{'UTCtimestamp': '2022-10-03T21:07:16.486571', 'cluster': 'jetstream2', 'clusterJobNumber': '120453', 'status': 'COMPLETE', 'nodeList': 'chemcompute-node-1'}
120453
