chemcompute.org
{'UTCtimestamp': '2022-10-03T02:17:57.312246', 'cluster': 'jetstream2', 'clusterJobNumber': '120219', 'status': 'RUNNING', 'nodeList': 'chemcompute-node-0'}
----- GAMESS execution script 'rungms' -----
This job is running on host chemcompute-node-0.novalocal
under operating system Linux at Mon Oct 3 02:18:01 UTC 2022
SLURM has assigned the following compute nodes to this run:
Available scratch disk space (Kbyte units) at beginning of the job is
Filesystem     1K-blocks     Used Available Use% Mounted on
/dev/sda1       62903276 11543004  51360272  19% /
GAMESS temporary binary files will be written to /scratch/120219
GAMESS supplementary output files will be written to /data/slurm/45/459408
Copying input file 459408.inp to your run's scratch directory...
The generated host list is
chemcompute-node-0.novalocal

 Distributed Data Interface kickoff program.
 Initiating 1 compute processes on 1 nodes to run the following command:
 /data/gamess-2019R1-avx2-ddi/gamess.00.x 459408 

          ******************************************************
          *         GAMESS VERSION = 30 JUN 2019 (R1)          *
          *             FROM IOWA STATE UNIVERSITY             *
          * M.W.SCHMIDT, K.K.BALDRIDGE, J.A.BOATZ, S.T.ELBERT, *
          *   M.S.GORDON, J.H.JENSEN, S.KOSEKI, N.MATSUNAGA,   *
          *          K.A.NGUYEN, S.J.SU, T.L.WINDUS,           *
          *       TOGETHER WITH M.DUPUIS, J.A.MONTGOMERY       *
          *         J.COMPUT.CHEM.  14, 1347-1363(1993)        *
          **************** 64 BIT INTEL VERSION ****************

  SINCE 1993, STUDENTS AND POSTDOCS WORKING AT IOWA STATE UNIVERSITY
  AND ALSO IN THEIR VARIOUS JOBS AFTER LEAVING ISU HAVE MADE IMPORTANT
  CONTRIBUTIONS TO THE CODE:
     IVANA ADAMOVIC, CHRISTINE AIKENS, YURI ALEXEEV, POOJA ARORA,
     ANDREY ASADCHEV, ROB BELL, PRADIPTA BANDYOPADHYAY, JONATHAN BENTZ,
     COLLEEN BERTONI, BRETT BODE, KURT BRORSEN, CALEB CARLIN, GALINA CHABAN,
     WEI CHEN, CHEOL HO CHOI, PAUL DAY, ALBERT DEFUSCO, NUWAN DESILVA,
     TIM DUDLEY, DMITRI FEDOROV, ALEX FINDLATER, GRAHAM FLETCHER, 
     MARK FREITAG, KURT GLAESEMANN, ANASTASIA GUNINA,
     DAN KEMP, GRANT MERRILL, NORIYUKI MINEZAWA, JONATHAN MULLIN,
     TAKESHI NAGATA, SEAN NEDD, HEATHER NETZLOFF, BOSILJKA NJEGIC, RYAN OLSON,
     MIKE PAK, BUU PHAM,
     SPENCER PRUITT, LUKE ROSKOP, JIM SHOEMAKER, LYUDMILA SLIPCHENKO,
     TONY SMITH, SAROM SOK LEANG, JIE SONG, TETSUYA TAKETSUGU, SIMON WEBB,
     PENG XU, SOOHAENG YOO, FEDERICO ZAHARIEV

  ADDITIONAL CODE HAS BEEN PROVIDED BY COLLABORATORS IN OTHER GROUPS:
     IOWA STATE UNIVERSITY:
          JOE IVANIC, AARON WEST, LAIMUTIS BYTAUTAS, KLAUS RUEDENBERG
     UNIVERSITY OF TOKYO: KIMIHIKO HIRAO, TAKAHITO NAKAJIMA,
          TAKAO TSUNEDA, MUNEAKI KAMIYA, SUSUMU YANAGISAWA,
          KIYOSHI YAGI, MAHITO CHIBA, SEIKEN TOKURA, NAOAKI KAWAKAMI
     UNIVERSITY OF AARHUS: FRANK JENSEN
     UNIVERSITY OF IOWA: VISVALDAS KAIRYS, HUI LI
     NATIONAL INST. OF STANDARDS AND TECHNOLOGY: WALT STEVENS, DAVID GARMER
     UNIVERSITY OF PISA: BENEDETTA MENNUCCI, JACOPO TOMASI
     UNIVERSITY OF MEMPHIS: HENRY KURTZ, PRAKASHAN KORAMBATH
     UNIVERSITY OF ALBERTA: TOBY ZENG, MARIUSZ KLOBUKOWSKI
     UNIVERSITY OF NEW ENGLAND: MARK SPACKMAN
     MIE UNIVERSITY: HIROAKI UMEDA
     NAT. INST. OF ADVANCED INDUSTRIAL SCIENCE AND TECHNOLOGY: KAZUO KITAURA
     MICHIGAN STATE UNIVERSITY:
          KAROL KOWALSKI, MARTA WLOCH, JEFFREY GOUR, JESSE LUTZ,
          WEI LI, JUN SHEN, J. EMILIANO DEUSTUA, PIOTR PIECUCH
     UNIVERSITY OF MINNESOTA:
          YINAN SHU
     UNIVERSITY OF SILESIA: MONIKA MUSIAL, STANISLAW KUCHARSKI
     FACULTES UNIVERSITAIRES NOTRE-DAME DE LA PAIX:
          OLIVIER QUINET, BENOIT CHAMPAGNE
     UNIVERSITY OF CALIFORNIA - SANTA BARBARA: BERNARD KIRTMAN
     INSTITUTE FOR MOLECULAR SCIENCE:
          KAZUYA ISHIMURA, MICHIO KATOUDA, AND SHIGERU NAGASE
     UNIVERSITY OF NOTRE DAME: ANNA POMOGAEVA, DAN CHIPMAN
     KYUSHU UNIVERSITY:
          HARUYUKI NAKANO,
          FENG LONG GU, JACEK KORCHOWIEC, MARCIN MAKOWSKI, AND YURIKO AOKI,
          HIROTOSHI MORI AND EISAKU MIYOSHI
     PENNSYLVANIA STATE UNIVERSITY:
          TZVETELIN IORDANOV, CHET SWALINA, JONATHAN SKONE,
          SHARON HAMMES-SCHIFFER
     WASEDA UNIVERSITY:
          MASATO KOBAYASHI, TOMOKO AKAMA, TSUGUKI TOUMA,
          TAKESHI YOSHIKAWA, YASUHIRO IKABATA, JUNJI SEINO,
          YUYA NAKAJIMA, HIROMI NAKAI
     NANJING UNIVERSITY: SHUHUA LI
     UNIVERSITY OF NEBRASKA:
          PEIFENG SU, DEJUN SI, NANDUN THELLAMUREGE, YALI WANG, HUI LI
     UNIVERSITY OF ZURICH: ROBERTO PEVERATI, KIM BALDRIDGE
     N. COPERNICUS UNIVERSITY AND JACKSON STATE UNIVERSITY:
          MARIA BARYSZ
     UNIVERSITY OF COPENHAGEN: Jimmy Kromann, CASPER STEINMANN
     TOKYO INSTITUTE OF TECHNOLOGY: HIROYA NAKATA
     NAGOYA UNIVERSITY: YOSHIO NISHIMOTO, STEPHAN IRLE
     MOSCOW STATE UNIVERSITY: VLADIMIR MIRONOV
     A.N.NESMEYANOV INSTITUTE OF ORGANOELEMENT COMPOUNDS OF RUSSIAN ACADEMY OF SCIENCES:
          IGOR S. GERASIMOV

 EXECUTION OF GAMESS BEGUN Mon Oct  3 02:18:01 2022

            ECHO OF THE FIRST FEW INPUT CARDS -
 INPUT CARD>!                                                                               
 INPUT CARD>!   GAMESS Calculation input file                                               
 INPUT CARD>!                                                                               
 INPUT CARD>!                                                                               
 INPUT CARD> $CONTRL SCFTYP=RHF MAXIT=200 RUNTYP=OPTIMIZE                                   
 INPUT CARD>         COORD=UNIQUE MULT=1                                                    
 INPUT CARD>         ICHARG=0                                                               
 INPUT CARD>         DFTTYP=B3LYP                                                           
 INPUT CARD>         MOLPLT=.FALSE. PLTORB=.FALSE.  $END                                    
 INPUT CARD> $SYSTEM TIMLIM=2879 MWORDS=250  $END                                           
 INPUT CARD>                                                                                
 INPUT CARD> $FORCE METHOD=SEMINUM NVIB=2 $END                                              
 INPUT CARD> $STATPT OPTTOL=0.0005 NSTEP=999 $END                                           
 INPUT CARD> $STATPT IHREP=0 HSSEND=.TRUE.  $END                                            
 INPUT CARD>                                                                                
 INPUT CARD> $DFT    METHOD=GRID  NLEB=590  $END                                            
 INPUT CARD>                                                                                
 INPUT CARD> $BASIS  GBASIS=N31 NGAUSS=6                                                    
 INPUT CARD>         NDFUNC=1   NPFUNC=0  $END                                              
 INPUT CARD>                                                                                
 INPUT CARD> $SCF    DIRSCF=.T. $END                                                        
 INPUT CARD> $GUESS  GUESS=HUCKEL  $END                                                     
 INPUT CARD>                                                                                
 INPUT CARD> $DATA                                                                          
 INPUT CARD>                                                                                
 INPUT CARD>  C1                                                                            
 INPUT CARD>C     6.0    -0.79627     1.88750     0.19207                                   
 INPUT CARD>C     6.0    -0.29058     0.52763     0.01259                                   
 INPUT CARD>C     6.0     0.19280    -0.56399    -0.08470                                   
 INPUT CARD>C     6.0     0.86403    -1.86278    -0.14225                                   
 INPUT CARD>H     1.0    -0.07845     2.62030    -0.19216                                   
 INPUT CARD>H     1.0    -0.95966     2.10179     1.25378                                   
 INPUT CARD>H     1.0    -1.74125     2.03082    -0.33242                                   
 INPUT CARD>H     1.0     0.57740    -2.41632    -1.03790                                   
 INPUT CARD>H     1.0     0.61157    -2.46749     0.73058                                   
 INPUT CARD>H     1.0     1.94793    -1.73045    -0.15656                                   
 INPUT CARD> $END                                                                           
 INPUT CARD>                                                                                
 INPUT CARD>                                                                                
 INPUT CARD>! Customizations after this line are persisted when using Do More Calculations  
  250000000 WORDS OF MEMORY AVAILABLE

     BASIS OPTIONS
     -------------
     GBASIS=N31          IGAUSS=       6      POLAR=POPN31  
     NDFUNC=       1     NFFUNC=       0     DIFFSP=       F
     NPFUNC=       0      DIFFS=       F     BASNAM=        


     RUN TITLE
     ---------
                                                                                 

 THE POINT GROUP OF THE MOLECULE IS C1      
 THE ORDER OF THE PRINCIPAL AXIS IS     0

 ATOM      ATOMIC                      COORDINATES (BOHR)
           CHARGE         X                   Y                   Z
 C           6.0    -1.5047321122        3.5668578018        0.3629596705
 C           6.0    -0.5491165775        0.9970761229        0.0237916502
 C           6.0     0.3643391704       -1.0657865598       -0.1600597912
 C           6.0     1.6327799452       -3.5201437754       -0.2688135218
 H           1.0    -0.1482490037        4.9516490056       -0.3631297458
 H           1.0    -1.8134944414        3.9718071837        2.3693006489
 H           1.0    -3.2904853761        3.8376933304       -0.6281827128
 H           1.0     1.0911277853       -4.5661826987       -1.9613466027
 H           1.0     1.1556997223       -4.6628799774        1.3805960121
 H           1.0     3.6810539433       -3.2700763355       -0.2958555006

          INTERNUCLEAR DISTANCES (ANGS.)
          ------------------------------

                1 C          2 C          3 C          4 C          5 H     

   1 C       0.0000000    1.4619103 *  2.6579436 *  4.1149685    1.0953968 *
   2 C       1.4619103 *  0.0000000    1.1978129 *  2.6591652 *  2.1133361 *
   3 C       2.6579436 *  1.1978129 *  0.0000000    1.4631190 *  3.1976283  
   4 C       4.1149685    2.6591652 *  1.4631190 *  0.0000000    4.5813498  
   5 H       1.0953968 *  2.1133361 *  3.1976283    4.5813498    0.0000000  
   6 H       1.0953742 *  2.1133387 *  3.1978236    4.5817639    1.7709111 *
   7 H       1.0902374 *  2.1173227 *  3.2457593    4.6886853    1.7697637 *
   8 H       4.6821642    3.2440345    2.1184036 *  1.0912159 *  5.1490734  
   9 H       4.6084644    3.2093813    2.1126670 *  1.0914405 *  5.2166257  
  10 H       4.5543099    3.1840955    2.1086190 *  1.0920418 *  4.7996363  

                6 H          7 H          8 H          9 H         10 H     

   1 C       1.0953742 *  1.0902374 *  4.6821642    4.6084644    4.5543099  
   2 C       2.1133387 *  2.1173227 *  3.2440345    3.2093813    3.1840955  
   3 C       3.1978236    3.2457593    2.1184036 *  2.1126670 *  2.1086190 *
   4 C       4.5817639    4.6886853    1.0912159 *  1.0914405 *  1.0920418 *
   5 H       1.7709111 *  1.7697637 *  5.1490734    5.2166257    4.7996363  
   6 H       0.0000000    1.7697316 *  5.2941164    4.8601257    5.0129035  
   7 H       1.7697316 *  0.0000000    5.0646712    5.1865715    5.2714446  
   8 H       5.2941164    5.0646712    0.0000000    1.7695501 *  1.7679169 *
   9 H       4.8601257    5.1865715    1.7695501 *  0.0000000    1.7652488 *
  10 H       5.0129035    5.2714446    1.7679169 *  1.7652488 *  0.0000000  

  * ... LESS THAN  3.000


     ATOMIC BASIS SET
     ----------------
 THE CONTRACTED PRIMITIVE FUNCTIONS HAVE BEEN UNNORMALIZED
 THE CONTRACTED BASIS FUNCTIONS ARE NOW NORMALIZED TO UNITY

  SHELL TYPE  PRIMITIVE        EXPONENT          CONTRACTION COEFFICIENT(S)

 C         

      1   S       1          3047.5248800    0.001834737132
      1   S       2           457.3695180    0.014037322813
      1   S       3           103.9486850    0.068842622264
      1   S       4            29.2101553    0.232184443216
      1   S       5             9.2866630    0.467941348435
      1   S       6             3.1639270    0.362311985337

      2   L       7             7.8682723   -0.119332419775    0.068999066591
      2   L       8             1.8812885   -0.160854151696    0.316423960957
      2   L       9             0.5442493    1.143456437840    0.744308290898

      3   L      10             0.1687145    1.000000000000    1.000000000000

      4   D      11             0.8000000    1.000000000000

 C         

      5   S      12          3047.5248800    0.001834737132
      5   S      13           457.3695180    0.014037322813
      5   S      14           103.9486850    0.068842622264
      5   S      15            29.2101553    0.232184443216
      5   S      16             9.2866630    0.467941348435
      5   S      17             3.1639270    0.362311985337

      6   L      18             7.8682723   -0.119332419775    0.068999066591
      6   L      19             1.8812885   -0.160854151696    0.316423960957
      6   L      20             0.5442493    1.143456437840    0.744308290898

      7   L      21             0.1687145    1.000000000000    1.000000000000

      8   D      22             0.8000000    1.000000000000

 C         

      9   S      23          3047.5248800    0.001834737132
      9   S      24           457.3695180    0.014037322813
      9   S      25           103.9486850    0.068842622264
      9   S      26            29.2101553    0.232184443216
      9   S      27             9.2866630    0.467941348435
      9   S      28             3.1639270    0.362311985337

     10   L      29             7.8682723   -0.119332419775    0.068999066591
     10   L      30             1.8812885   -0.160854151696    0.316423960957
     10   L      31             0.5442493    1.143456437840    0.744308290898

     11   L      32             0.1687145    1.000000000000    1.000000000000

     12   D      33             0.8000000    1.000000000000

 C         

     13   S      34          3047.5248800    0.001834737132
     13   S      35           457.3695180    0.014037322813
     13   S      36           103.9486850    0.068842622264
     13   S      37            29.2101553    0.232184443216
     13   S      38             9.2866630    0.467941348435
     13   S      39             3.1639270    0.362311985337

     14   L      40             7.8682723   -0.119332419775    0.068999066591
     14   L      41             1.8812885   -0.160854151696    0.316423960957
     14   L      42             0.5442493    1.143456437840    0.744308290898

     15   L      43             0.1687145    1.000000000000    1.000000000000

     16   D      44             0.8000000    1.000000000000

 H         

     17   S      45            18.7311370    0.033494604338
     17   S      46             2.8253944    0.234726953484
     17   S      47             0.6401217    0.813757326146

     18   S      48             0.1612778    1.000000000000

 H         

     19   S      49            18.7311370    0.033494604338
     19   S      50             2.8253944    0.234726953484
     19   S      51             0.6401217    0.813757326146

     20   S      52             0.1612778    1.000000000000

 H         

     21   S      53            18.7311370    0.033494604338
     21   S      54             2.8253944    0.234726953484
     21   S      55             0.6401217    0.813757326146

     22   S      56             0.1612778    1.000000000000

 H         

     23   S      57            18.7311370    0.033494604338
     23   S      58             2.8253944    0.234726953484
     23   S      59             0.6401217    0.813757326146

     24   S      60             0.1612778    1.000000000000

 H         

     25   S      61            18.7311370    0.033494604338
     25   S      62             2.8253944    0.234726953484
     25   S      63             0.6401217    0.813757326146

     26   S      64             0.1612778    1.000000000000

 H         

     27   S      65            18.7311370    0.033494604338
     27   S      66             2.8253944    0.234726953484
     27   S      67             0.6401217    0.813757326146

     28   S      68             0.1612778    1.000000000000

 TOTAL NUMBER OF BASIS SET SHELLS             =   28
 NUMBER OF CARTESIAN GAUSSIAN BASIS FUNCTIONS =   72
 NUMBER OF ELECTRONS                          =   30
 CHARGE OF MOLECULE                           =    0
 SPIN MULTIPLICITY                            =    1
 NUMBER OF OCCUPIED ORBITALS (ALPHA)          =   15
 NUMBER OF OCCUPIED ORBITALS (BETA )          =   15
 TOTAL NUMBER OF ATOMS                        =   10
 THE NUCLEAR REPULSION ENERGY IS      100.1515800165

 SELECTED MURRAY-HANDY-LAMING RADIAL GRID

 LEGACY BECKE'S FUZZY CELL METHOD

 SELECTED ORIGINAL BECKE'S PARTITION FUNCTION

     LEBEDEV GRID-BASED DFT OPTIONS
     ------------------------------
     DFTTYP=B3LYP   
     NRAD  =      96     NLEB  =     590
     NRAD0 =      24     NLEB0 =     110
     SWOFF =    5.00E-03 (PURE SCF -> DFT)
     SWITCH=    3.00E-04 (COARSE -> TIGHT GRID)
     THRESH=    0.00E+00 GTHRE=    1.00E+00

 GRIMME'S EMPIRICAL DISPERSION CORRECTION= F

     $CONTRL OPTIONS
     ---------------
 SCFTYP=RHF          RUNTYP=OPTIMIZE     EXETYP=RUN     
 MPLEVL=       0     CITYP =NONE         CCTYP =NONE         VBTYP =NONE    
 DFTTYP=B3LYP        TDDFT =NONE    
 MULT  =       1     ICHARG=       0     NZVAR =       0     COORD =UNIQUE  
 PP    =NONE         RELWFN=NONE         LOCAL =NONE         NUMGRD=       F
 ISPHER=      -1     NOSYM =       0     MAXIT =     200     UNITS =ANGS    
 PLTORB=       F     MOLPLT=       F     AIMPAC=       F     FRIEND=        
 NPRINT=       7     IREST =       0     GEOM  =INPUT   
 NORMF =       0     NORMP =       0     ITOL  =      20     ICUT  =       9
 INTTYP=BEST         GRDTYP=BEST         QMTTOL= 1.0E-06

     $SYSTEM OPTIONS
     ---------------
  REPLICATED MEMORY=   250000000 WORDS (ON EVERY NODE).
 DISTRIBUTED MEMDDI=           0 MILLION WORDS IN AGGREGATE,
 MEMDDI DISTRIBUTED OVER   1 PROCESSORS IS           0 WORDS/PROCESSOR.
 TOTAL MEMORY REQUESTED ON EACH PROCESSOR=   250000000 WORDS.
 TIMLIM=        2879.00 MINUTES, OR       2.0 DAYS.
 PARALL= F  BALTYP=  DLB     KDIAG=    0  COREFL= F
 MXSEQ2=     300 MXSEQ3=     150  mem10=         0

          ----------------
          PROPERTIES INPUT
          ----------------

     MOMENTS            FIELD           POTENTIAL          DENSITY
 IEMOM =       1   IEFLD =       0   IEPOT =       0   IEDEN =       0
 WHERE =COMASS     WHERE =NUCLEI     WHERE =NUCLEI     WHERE =NUCLEI  
 OUTPUT=BOTH       OUTPUT=BOTH       OUTPUT=BOTH       OUTPUT=BOTH    
 IEMINT=       0   IEFINT=       0                     IEDINT=       0
                                                       MORB  =       0
          EXTRAPOLATION IN EFFECT
          DIIS IN EFFECT
 ORBITAL PRINTING OPTION: NPREO=     1    72     2     1

     -------------------------------
     INTEGRAL TRANSFORMATION OPTIONS
     -------------------------------
     NWORD  =            0
     CUTOFF = 1.0E-09     MPTRAN =       0
     DIRTRF =       T     AOINTS =DUP     

          ----------------------
          INTEGRAL INPUT OPTIONS
          ----------------------
 NOPK  =       1 NORDER=       0 SCHWRZ=       T

     ------------------------------------------
     THE POINT GROUP IS C1 , NAXIS= 0, ORDER= 1
     ------------------------------------------

     DIMENSIONS OF THE SYMMETRY SUBSPACES ARE
 A   =   72

 ..... DONE SETTING UP THE RUN .....
 STEP CPU TIME =     0.01 TOTAL CPU TIME =          0.0 (      0.0 MIN)
 TOTAL WALL CLOCK TIME=          0.0 SECONDS, CPU UTILIZATION IS    50.00%


          -----------------------------
          STATIONARY POINT LOCATION RUN
          -----------------------------

 OBTAINING INITIAL HESSIAN, HESS=GUESS   
 CARTESIAN COORDINATE OPTIMIZATION USING BADGER'S RULE FORCE CONSTANT GUESS

          PARAMETERS CONTROLLING GEOMETRY SEARCH ARE
          METHOD =QA                  UPHESS =BFGS    
          NNEG   =         0          NFRZ   =         0
          NSTEP  =       999          IFOLOW =         1
          HESS   =GUESS               RESTAR =         F
          IHREP  =         0          HSSEND =         T
          NPRT   =         0          NPUN   =         0
          OPTTOL = 5.000E-04          RMIN   = 1.500E-03
          RMAX   = 1.000E-01          RLIM   = 7.000E-02
          DXMAX  = 3.000E-01          PURIFY =         F
          MOVIE  =         F          TRUPD  =         T
          TRMAX  = 5.000E-01          TRMIN  = 5.000E-02
          ITBMAT =         5          STPT   =         F
          STSTEP = 1.000E-02          PROJCT=          T

 BEGINNING GEOMETRY SEARCH POINT NSERCH=   0 ...

 COORDINATES OF ALL ATOMS ARE (ANGS)
   ATOM   CHARGE       X              Y              Z
 ------------------------------------------------------------
 C           6.0  -0.7962700000   1.8875000000   0.1920700000
 C           6.0  -0.2905800000   0.5276300000   0.0125900000
 C           6.0   0.1928000000  -0.5639900000  -0.0847000000
 C           6.0   0.8640300000  -1.8627800000  -0.1422500000
 H           1.0  -0.0784500000   2.6203000000  -0.1921600000
 H           1.0  -0.9596600000   2.1017900000   1.2537800000
 H           1.0  -1.7412500000   2.0308200000  -0.3324200000
 H           1.0   0.5774000000  -2.4163200000  -1.0379000000
 H           1.0   0.6115700000  -2.4674900000   0.7305800000
 H           1.0   1.9479300000  -1.7304500000  -0.1565600000

          ********************
          1 ELECTRON INTEGRALS
          ********************
 ...... END OF ONE-ELECTRON INTEGRALS ......
 STEP CPU TIME =     0.01 TOTAL CPU TIME =          0.0 (      0.0 MIN)
 TOTAL WALL CLOCK TIME=          0.0 SECONDS, CPU UTILIZATION IS    66.67%

          -------------
          GUESS OPTIONS
          -------------
          GUESS =HUCKEL            NORB  =       0          NORDER=       0
          MIX   =       F          PRTMO =       F          PUNMO =       F
          TOLZ  = 1.0E-08          TOLE  = 1.0E-05
          SYMDEN=       F          PURIFY=       F

 INITIAL GUESS ORBITALS GENERATED BY HUCKEL   ROUTINE.
 HUCKEL GUESS REQUIRES     47838 WORDS.

 SYMMETRIES FOR INITIAL GUESS ORBITALS FOLLOW.   BOTH SET(S).
    15 ORBITALS ARE OCCUPIED (    4 CORE ORBITALS).
     5=A        6=A        7=A        8=A        9=A       10=A       11=A   
    12=A       13=A       14=A       15=A       16=A       17=A       18=A   
    19=A       20=A       21=A       22=A       23=A       24=A       25=A   
 ...... END OF INITIAL ORBITAL SELECTION ......
 STEP CPU TIME =     0.00 TOTAL CPU TIME =          0.0 (      0.0 MIN)
 TOTAL WALL CLOCK TIME=          0.0 SECONDS, CPU UTILIZATION IS    40.00%

                    ----------------------
                    AO INTEGRAL TECHNOLOGY
                    ----------------------
     S,P,L SHELL ROTATED AXIS INTEGRALS, REPROGRAMMED BY
        KAZUYA ISHIMURA (IMS) AND JOSE SIERRA (SYNSTAR).
     S,P,D,L SHELL ROTATED AXIS INTEGRALS PROGRAMMED BY
        KAZUYA ISHIMURA (INSTITUTE FOR MOLECULAR SCIENCE).
     S,P,D,F,G SHELL TO TOTAL QUARTET ANGULAR MOMENTUM SUM 5,
        ERIC PROGRAM BY GRAHAM FLETCHER (ELORET AND NASA ADVANCED
        SUPERCOMPUTING DIVISION, AMES RESEARCH CENTER).
     S,P,D,F,G,L SHELL GENERAL RYS QUADRATURE PROGRAMMED BY
        MICHEL DUPUIS (PACIFIC NORTHWEST NATIONAL LABORATORY).

          --------------------
          2 ELECTRON INTEGRALS
          --------------------

 DIRECT SCF METHOD SKIPS INTEGRAL STORAGE ON DISK.
 DIRECT TRANSFORMATION SKIPS AO INTEGRAL STORAGE ON DISK.
  ...... END OF TWO-ELECTRON INTEGRALS .....
 STEP CPU TIME =     0.01 TOTAL CPU TIME =          0.0 (      0.0 MIN)
 TOTAL WALL CLOCK TIME=          0.1 SECONDS, CPU UTILIZATION IS    50.00%

          --------------------------
             R-B3LYP SCF CALCULATION
          --------------------------

     NUCLEAR ENERGY =       100.1515800165
     MAXIT =  200     NPUNCH=    2
     EXTRAP=T  DAMP=F  SHIFT=F  RSTRCT=F  DIIS=T  DEM=F  SOSCF=F
         DENSITY MATRIX CONVERGENCE THRESHOLD=  2.00E-05
     COARSE -> FINE DFT GRID SWITCH THRESHOLD=  3.00E-04 (SWITCH IN $DFT)
                   HF -> DFT SWITCH THRESHOLD=  5.00E-03 (SWOFF IN $DFT)
     MEMORY REQUIRED FOR RHF ITERS=    743023 WORDS.

 DIRECT SCF CALCULATION, SCHWRZ=T   FDIFF=T,  DIRTHR=  0.00E+00 NITDIR=10
 SCHWARZ INEQUALITY OVERHEAD:      2607 INTEGRALS, T=        0.00

 DFT CODE IS SWITCHING FROM THE FINE GRID NRAD= 96,  NLEB=  590
                      TO THE COARSE GRID NRAD0= 24, NLEB0=  110

     EXCHANGE FUNCTIONAL   =B88&HFX   
     CORRELATION FUNCTIONAL=LYP88&VWN5
     DFT THRESHOLD         =.706E-08
     GRID CHANGE THRESHOLD =.300E-03
 FOR AN EULER-MACLAURIN QUADRATURE USING  96 RADIAL POINTS:
 SMALLEST GAUSSIAN PRIMITIVE EXPONENT=        0.1612777588 OF TYPE -S-
 ON ATOM NUMBER   5 HAS RADIAL NORMALIZATION=  1.000000
  LARGEST GAUSSIAN PRIMITIVE EXPONENT=     3047.5248800000 OF TYPE -S-
 ON ATOM NUMBER   1 HAS RADIAL NORMALIZATION=  1.000000
 DFT IS SWITCHED OFF, PERFORMING PURE SCF UNTIL SWOFF THRESHOLD IS REACHED.

                                                                                   NONZERO     BLOCKS
 ITER EX DEM     TOTAL ENERGY        E CHANGE  DENSITY CHANGE    DIIS ERROR      INTEGRALS    SKIPPED
          * * *   INITIATING DIIS PROCEDURE   * * *
   1  0  0     -154.5712901882  -154.5712901882   0.228264354   0.383538168        3008071      16610
   2  1  0     -154.8912871830    -0.3199969948   0.048393110   0.045234338        3005348      17650
   3  2  0     -154.9059290593    -0.0146418763   0.015927018   0.016766678        2983712      19049
   4  3  0     -154.9077359879    -0.0018069286   0.007502972   0.005564095        2953237      20896
   5  4  0     -154.9079959463    -0.0002599584   0.001290379   0.001100010        2937729      21278
 CONVERGED TO SWOFF, SO DFT CALCULATION IS NOW SWITCHED ON.
          * * *   INITIATING DIIS PROCEDURE   * * *
   6  5  0     -155.8479922845    -0.9399963382   0.268604082   0.096571844        3007500      16660
   7  6  0     -155.8638045955    -0.0158123110   0.039036096   0.024079129        2998679      18298
   8  7  0     -155.8646335092    -0.0008289137   0.014864332   0.019377371        2972826      19481
   9  8  0     -155.8662833276    -0.0016498183   0.001519325   0.001030413        2950518      20484
  10  9  0     -155.8662878291    -0.0000045015   0.000389810   0.000494785        2835789      24886
  11 10  0     -155.8662889875    -0.0000011584   0.000057928   0.000031029        2783120      26534
 DFT CODE IS SWITCHING BACK TO THE FINE GRID
          * * *   INITIATING DIIS PROCEDURE   * * *
  12 11  0     -155.8682575152    -0.0019685277   0.002228171   0.001158075        3008549      16509
  13 12  0     -155.8682615258    -0.0000040106   0.000312225   0.000155069        2891613      23393
  14 13  0     -155.8682615871    -0.0000000613   0.000141962   0.000080552        2749539      28041
  15 14  0     -155.8682616100    -0.0000000229   0.000068230   0.000068629        2684040      31123
  16 15  0     -155.8682616304    -0.0000000204   0.000016768   0.000014746        2614756      34191
  17 16  0     -155.8682616316    -0.0000000012   0.000001808   0.000001677        2501381      37725

          -----------------
          DENSITY CONVERGED
          -----------------
     TIME TO FORM FOCK OPERATORS=      11.2 SECONDS (       0.7 SEC/ITER)
     FOCK TIME ON FIRST ITERATION=       0.1, LAST ITERATION=       1.6
     TIME TO SOLVE SCF EQUATIONS=       0.1 SECONDS (       0.0 SEC/ITER)

 FINAL R-B3LYP ENERGY IS     -155.8682616316 AFTER  17 ITERATIONS
 DFT EXCHANGE + CORRELATION ENERGY =       -19.2276547388
 TOTAL ELECTRON NUMBER             =        29.9999970871

          ------------
          EIGENVECTORS
          ------------

                      1          2          3          4          5
                  -10.1937   -10.1932   -10.1624   -10.1598    -0.7722
                     A          A          A          A          A   
    1  C  1  S    0.992927   0.000411  -0.003624  -0.003558  -0.101866
    2  C  1  S    0.050204   0.000065  -0.000131  -0.000262   0.197477
    3  C  1  X    0.000094  -0.000023  -0.000219  -0.000209   0.016330
    4  C  1  Y   -0.000260   0.000052   0.000588   0.000552  -0.042423
    5  C  1  Z   -0.000036   0.000005   0.000077   0.000071  -0.005260
    6  C  1  S   -0.020090  -0.000167   0.001189   0.000451   0.147384
    7  C  1  X   -0.000791   0.000013   0.000314   0.000391  -0.000787
    8  C  1  Y    0.002133   0.000111  -0.000733  -0.000584   0.004992
    9  C  1  Z    0.000283   0.000047  -0.000072   0.000027   0.001310
   10  C  1 XX   -0.009100  -0.000018  -0.000134  -0.000150  -0.000525
   11  C  1 YY   -0.009080  -0.000079  -0.000651  -0.000604   0.003210
   12  C  1 ZZ   -0.009111  -0.000011  -0.000073  -0.000099  -0.001186
   13  C  1 XY   -0.000018   0.000024   0.000236   0.000197  -0.002074
   14  C  1 XZ    0.000003   0.000001   0.000031   0.000021  -0.000241
   15  C  1 YZ    0.000003  -0.000015  -0.000102  -0.000097   0.000580
   16  C  2  S    0.004781   0.000168   0.693050   0.710550  -0.132967
   17  C  2  S    0.000048   0.000230   0.033440   0.036103   0.249200
   18  C  2  X    0.000091   0.000112  -0.000203   0.000263   0.017244
   19  C  2  Y   -0.000267  -0.000269   0.000507  -0.000588  -0.027214
   20  C  2  Z   -0.000041  -0.000028   0.000058  -0.000051   0.000712
   21  C  2  S    0.004386   0.002997  -0.004197  -0.016106   0.178403
   22  C  2  X   -0.002038   0.000163   0.000330  -0.002234  -0.008236
   23  C  2  Y    0.005340  -0.000627  -0.000860   0.004661   0.021146
   24  C  2  Z    0.000673  -0.000125  -0.000107   0.000313   0.002563
   25  C  2 XX   -0.000275   0.000028  -0.007119  -0.006898  -0.008935
   26  C  2 YY   -0.000773   0.000220  -0.006077  -0.005935   0.008706
   27  C  2 ZZ   -0.000194   0.000010  -0.007339  -0.007055  -0.012293
   28  C  2 XY    0.000266  -0.000084  -0.000628  -0.000514  -0.010087
   29  C  2 XZ    0.000032  -0.000014  -0.000062  -0.000064  -0.001068
   30  C  2 YZ   -0.000081   0.000037   0.000146   0.000156   0.002663
   31  C  3  S    0.000162   0.004819   0.709695  -0.693926  -0.133057
   32  C  3  S    0.000230   0.000054   0.034282  -0.035298   0.249389
   33  C  3  X   -0.000124  -0.000137   0.000233   0.000266  -0.008266
   34  C  3  Y    0.000264   0.000247  -0.000479  -0.000604   0.030436
   35  C  3  Z    0.000019   0.000006  -0.000030  -0.000055   0.005869
   36  C  3  S    0.002932   0.004322  -0.004587   0.015994   0.177447
   37  C  3  X   -0.000338   0.002622  -0.000360  -0.001955   0.010757
   38  C  3  Y    0.000509  -0.005179   0.000698   0.004794  -0.021510
   39  C  3  Z   -0.000022  -0.000263   0.000031   0.000528  -0.001171
   40  C  3 XX    0.000062  -0.000319  -0.007248   0.006641  -0.007915
   41  C  3 YY    0.000191  -0.000734  -0.006248   0.005864   0.007909
   42  C  3 ZZ    0.000005  -0.000186  -0.007508   0.006891  -0.012460
   43  C  3 XY   -0.000120   0.000314  -0.000673   0.000591  -0.011224
   44  C  3 XZ   -0.000004   0.000019  -0.000053   0.000035  -0.000756
   45  C  3 YZ    0.000004  -0.000036   0.000116  -0.000067   0.001650
   46  C  4  S   -0.000413   0.992924  -0.003735   0.003494  -0.102466
   47  C  4  S    0.000024   0.050232  -0.000135   0.000256   0.198661
   48  C  4  X    0.000023  -0.000125   0.000295  -0.000262  -0.020044
   49  C  4  Y   -0.000053   0.000246  -0.000571   0.000514   0.040740
   50  C  4  Z   -0.000005   0.000012  -0.000026   0.000024   0.002436
   51  C  4  S   -0.000175  -0.020147   0.001180  -0.000411   0.147700
   52  C  4  X    0.000097   0.001045  -0.000337   0.000154   0.003385
   53  C  4  Y   -0.000077  -0.002051   0.000736  -0.000650  -0.004292
   54  C  4  Z    0.000030  -0.000100   0.000060  -0.000135   0.000530
   55  C  4 XX   -0.000020  -0.009110  -0.000217   0.000218  -0.000214
   56  C  4 YY   -0.000058  -0.009088  -0.000590   0.000517   0.002940
   57  C  4 ZZ   -0.000005  -0.009110  -0.000066   0.000096  -0.001200
   58  C  4 XY    0.000040  -0.000012   0.000334  -0.000284  -0.002306
   59  C  4 XZ   -0.000002  -0.000001   0.000007   0.000001  -0.000163
   60  C  4 YZ   -0.000001   0.000004  -0.000018   0.000011   0.000293
   61  H  5  S    0.000051   0.000001  -0.000060  -0.000102   0.057555
   62  H  5  S    0.002751  -0.000011   0.000213   0.000198   0.008532
   63  H  6  S    0.000051   0.000001  -0.000060  -0.000101   0.057559
   64  H  6  S    0.002751  -0.000010   0.000213   0.000198   0.008533
   65  H  7  S    0.000043   0.000014  -0.000049  -0.000073   0.057588
   66  H  7  S    0.002770   0.000018   0.000246   0.000286   0.008896
   67  H  8  S    0.000013   0.000045  -0.000051   0.000074   0.057824
   68  H  8  S    0.000015   0.002762   0.000250  -0.000275   0.008948
   69  H  9  S    0.000005   0.000048  -0.000058   0.000093   0.058208
   70  H  9  S   -0.000003   0.002770   0.000228  -0.000221   0.008732
   71  H 10  S   -0.000001   0.000051  -0.000064   0.000105   0.058448
   72  H 10  S   -0.000019   0.002775   0.000214  -0.000174   0.008602

                      6          7          8          9         10
                   -0.7356    -0.6577    -0.4690    -0.4240    -0.4235
                     A          A          A          A          A   
    1  C  1  S    0.136366  -0.096614  -0.023928  -0.000175   0.000046
    2  C  1  S   -0.264298   0.185817   0.051543   0.000925  -0.000231
    3  C  1  X   -0.009271  -0.019110  -0.101191   0.188584  -0.202523
    4  C  1  Y    0.025689   0.047535   0.275334   0.068019  -0.106416
    5  C  1  Z    0.003554   0.005414   0.037077   0.223969   0.184257
    6  C  1  S   -0.244516   0.254282  -0.029077  -0.009286   0.002267
    7  C  1  X   -0.000974   0.001861  -0.053265   0.085243  -0.092762
    8  C  1  Y    0.002695  -0.012508   0.150450   0.035509  -0.049973
    9  C  1  Z    0.000374  -0.003333   0.021483   0.103622   0.084431
   10  C  1 XX    0.000474   0.001006   0.007085  -0.007730  -0.005443
   11  C  1 YY    0.001064  -0.007097  -0.013857   0.000436  -0.004048
   12  C  1 ZZ    0.000482   0.002122   0.009696   0.008075   0.009291
   13  C  1 XY   -0.000225   0.004192   0.009969   0.002467  -0.007088
   14  C  1 XZ   -0.000108   0.000702   0.001421  -0.010522   0.006094
   15  C  1 YZ    0.000090  -0.001273  -0.003860  -0.001176   0.004176
   16  C  2  S    0.059392   0.113808   0.096055   0.002984  -0.000763
   17  C  2  S   -0.114940  -0.208656  -0.192898  -0.007562   0.001931
   18  C  2  X    0.039612  -0.092390   0.065364   0.098251  -0.096756
   19  C  2  Y   -0.100978   0.218603  -0.159694  -0.003033  -0.041202
   20  C  2  Z   -0.012079   0.022151  -0.017469   0.099796   0.088803
   21  C  2  S   -0.086778  -0.218823  -0.364471  -0.001104   0.000245
   22  C  2  X    0.001440   0.014542  -0.050417   0.034970  -0.038368
   23  C  2  Y   -0.003138  -0.035364   0.125519   0.011480  -0.019978
   24  C  2  Z   -0.000254  -0.003828   0.014302   0.042184   0.036084
   25  C  2 XX    0.004513   0.009039   0.007470  -0.001196   0.000238
   26  C  2 YY   -0.009309   0.001999   0.002684   0.000069  -0.001322
   27  C  2 ZZ    0.006424   0.010865   0.008103   0.001052   0.001109
   28  C  2 XY    0.006859   0.004748   0.002337   0.001905  -0.001886
   29  C  2 XZ    0.000922   0.000385   0.000325  -0.000485  -0.000189
   30  C  2 YZ   -0.002448  -0.000803  -0.000856   0.001502   0.001239
   31  C  3  S   -0.058234   0.114278  -0.096026   0.002571  -0.000700
   32  C  3  S    0.112728  -0.209569   0.192749  -0.006709   0.001794
   33  C  3  X    0.048654   0.099602   0.073462   0.070134  -0.090669
   34  C  3  Y   -0.098310  -0.214955  -0.155434   0.058296  -0.057693
   35  C  3  Z   -0.005656  -0.016481  -0.011081   0.107848   0.091560
   36  C  3  S    0.085551  -0.221825   0.365196  -0.000313   0.000304
   37  C  3  X    0.001447  -0.015338  -0.059292   0.034519  -0.038748
   38  C  3  Y   -0.003308   0.032431   0.121755   0.011557  -0.020473
   39  C  3  Z   -0.000298   0.002308   0.007592   0.043217   0.037723
   40  C  3 XX   -0.002707   0.009321  -0.006866   0.001691  -0.002297
   41  C  3 YY    0.007829   0.001742  -0.003196  -0.001543   0.001640
   42  C  3 ZZ   -0.006572   0.010885  -0.008188  -0.000291   0.000684
   43  C  3 XY   -0.008653   0.004536  -0.003006  -0.000319   0.000640
   44  C  3 XZ   -0.000383   0.000466  -0.000140   0.000896   0.000648
   45  C  3 YZ    0.000705  -0.001063   0.000249  -0.002218  -0.002119
   46  C  4  S   -0.136393  -0.096039   0.023802   0.000149  -0.000029
   47  C  4  S    0.264393   0.184785  -0.051355   0.000356  -0.000110
   48  C  4  X   -0.011961   0.023217  -0.137524   0.186992  -0.208060
   49  C  4  Y    0.023859  -0.046448   0.259835   0.059259  -0.109871
   50  C  4  Z    0.001315  -0.002494   0.009368   0.238168   0.208221
   51  C  4  S    0.244195   0.251525   0.029196  -0.010544   0.002699
   52  C  4  X   -0.001184  -0.007748  -0.076244   0.088057  -0.095783
   53  C  4  Y    0.002465   0.009659   0.140844   0.023402  -0.049296
   54  C  4  Z    0.000158  -0.001259   0.004075   0.109356   0.095493
   55  C  4 XX   -0.000593   0.000075  -0.004147   0.008421  -0.010417
   56  C  4 YY   -0.001054  -0.006473   0.011354  -0.001088   0.001564
   57  C  4 ZZ   -0.000329   0.002484  -0.010052  -0.006588   0.008659
   58  C  4 XY    0.000411   0.005028  -0.013097   0.002628  -0.002191
   59  C  4 XZ    0.000037   0.000373  -0.000473  -0.007448  -0.005973
   60  C  4 YZ   -0.000015  -0.000516   0.000955  -0.008565  -0.007787
   61  H  5  S   -0.083699   0.074165   0.084504   0.056121  -0.165010
   62  H  5  S   -0.017172   0.024675   0.054605   0.043135  -0.127813
   63  H  6  S   -0.083708   0.074176   0.084520   0.124622   0.115255
   64  H  6  S   -0.017177   0.024672   0.054624   0.096038   0.089505
   65  H  7  S   -0.084297   0.075502   0.085501  -0.160090   0.044581
   66  H  7  S   -0.017218   0.023653   0.055842  -0.123055   0.034260
   67  H  8  S    0.084108   0.074776  -0.083797  -0.168114  -0.037186
   68  H  8  S    0.017256   0.023555  -0.054644  -0.129274  -0.028481
   69  H  9  S    0.084308   0.074451  -0.084451   0.070358   0.169267
   70  H  9  S    0.017302   0.024379  -0.054686   0.053938   0.130832
   71  H 10  S    0.084380   0.074124  -0.084667   0.116670  -0.136976
   72  H 10  S    0.017311   0.024918  -0.054549   0.089794  -0.106162

                     11         12         13         14         15
                   -0.4226    -0.4124    -0.4116    -0.2384    -0.2380
                     A          A          A          A          A   
    1  C  1  S    0.000483  -0.000153  -0.000047   0.000274   0.000108
    2  C  1  S   -0.007218   0.000092   0.000039  -0.000319  -0.000116
    3  C  1  X    0.128508   0.205023   0.222177  -0.060304  -0.081581
    4  C  1  Y   -0.278917   0.041531   0.110588  -0.009425  -0.037824
    5  C  1  Z   -0.021488   0.248642  -0.217739  -0.088712   0.060490
    6  C  1  S    0.111727   0.004659   0.001228  -0.006205  -0.002694
    7  C  1  X    0.072859   0.095464   0.103945  -0.023725  -0.033870
    8  C  1  Y   -0.176073   0.018443   0.051542  -0.002076  -0.015193
    9  C  1  Z   -0.018613   0.115580  -0.102200  -0.036138   0.026296
   10  C  1 XX   -0.008275  -0.010593   0.005363   0.011046   0.005255
   11  C  1 YY    0.010740   0.001846   0.006311  -0.002885  -0.012299
   12  C  1 ZZ   -0.009383   0.008886  -0.011643  -0.007888   0.007155
   13  C  1 XY   -0.008251   0.002941   0.009205  -0.008872  -0.014129
   14  C  1 XZ   -0.002332  -0.012010  -0.005763   0.009308  -0.000834
   15  C  1 YZ    0.003212   0.001102  -0.006206  -0.013226   0.010668
   16  C  2  S   -0.008347  -0.000028  -0.000029   0.001383   0.000554
   17  C  2  S    0.035463  -0.000181   0.000026  -0.001871  -0.000723
   18  C  2  X   -0.114290   0.037624   0.042548   0.220425   0.298515
   19  C  2  Y    0.316414   0.007519   0.021988   0.044565   0.142314
   20  C  2  Z    0.043975   0.049108  -0.044687   0.327308  -0.219645
   21  C  2  S   -0.065206   0.007590   0.001662  -0.010941  -0.005198
   22  C  2  X    0.014498   0.017269   0.016885   0.136172   0.186989
   23  C  2  Y   -0.020030  -0.004173   0.006671   0.033655   0.092631
   24  C  2  Z    0.001684   0.018257  -0.017388   0.207192  -0.138684
   25  C  2 XX    0.000606  -0.005035  -0.004428   0.007873   0.009998
   26  C  2 YY    0.001293   0.002629   0.006467  -0.004811  -0.011999
   27  C  2 ZZ    0.000699   0.002222  -0.002081  -0.002853   0.002088
   28  C  2 XY   -0.000068   0.006172   0.006212  -0.008536  -0.010892
   29  C  2 XZ   -0.000065  -0.002967   0.003101   0.006358  -0.005243
   30  C  2 YZ    0.000217   0.007992  -0.006649  -0.015195   0.009651
   31  C  3  S   -0.008918   0.000265   0.000007   0.001330   0.000511
   32  C  3  S    0.036608  -0.000615  -0.000028  -0.001799  -0.000705
   33  C  3  X    0.158080  -0.039083  -0.039820   0.202613   0.291381
   34  C  3  Y   -0.301025  -0.011790  -0.020659   0.084003   0.157902
   35  C  3  Z   -0.011645  -0.042125   0.033385   0.331306  -0.218697
   36  C  3  S   -0.063423  -0.006724  -0.001350  -0.010582  -0.003412
   37  C  3  X   -0.005039  -0.010714  -0.014121   0.130712   0.184920
   38  C  3  Y    0.023305  -0.013745  -0.009820   0.047404   0.098198
   39  C  3  Z    0.005348  -0.016689   0.012324   0.208126  -0.137883
   40  C  3 XX    0.000816  -0.005679  -0.006432  -0.007765  -0.010991
   41  C  3 YY    0.001139   0.004615   0.006582   0.005360   0.012048
   42  C  3 ZZ    0.000557   0.001200  -0.000118   0.002582  -0.000990
   43  C  3 XY   -0.000290   0.004455   0.004741   0.008099   0.010219
   44  C  3 XZ    0.000018  -0.002964   0.003188  -0.005303   0.005367
   45  C  3 YZ    0.000027   0.008295  -0.006635   0.015767  -0.009685
   46  C  4  S    0.000607  -0.000090  -0.000016   0.000320   0.000124
   47  C  4  S   -0.007566   0.000423   0.000094  -0.000433  -0.000181
   48  C  4  X   -0.125114  -0.186942  -0.211461  -0.053859  -0.079259
   49  C  4  Y    0.281113  -0.094538  -0.119834  -0.025281  -0.044140
   50  C  4  Z    0.025143  -0.239112   0.195548  -0.089315   0.059236
   51  C  4  S    0.111724  -0.005403  -0.001255  -0.006288  -0.002150
   52  C  4  X   -0.083922  -0.086021  -0.098642  -0.021472  -0.033382
   53  C  4  Y    0.172490  -0.045597  -0.056316  -0.011712  -0.019019
   54  C  4  Z    0.011040  -0.111139   0.091148  -0.035114   0.024232
   55  C  4 XX   -0.004253  -0.009978  -0.012185  -0.010661  -0.016167
   56  C  4 YY    0.008360   0.001405   0.002862   0.006333   0.011567
   57  C  4 ZZ   -0.010972   0.008578   0.009314   0.004647   0.004720
   58  C  4 XY   -0.011270  -0.000634  -0.000944   0.004979   0.006795
   59  C  4 XZ   -0.000860   0.006887  -0.004932  -0.001763   0.002191
   60  C  4 YZ    0.000323   0.010375  -0.008889   0.017943  -0.011651
   61  H  5  S   -0.063899   0.047329   0.186874  -0.015733  -0.104260
   62  H  5  S   -0.047164   0.037307   0.148339  -0.020695  -0.132261
   63  H  6  S   -0.063731   0.137851  -0.140469  -0.082374   0.065838
   64  H  6  S   -0.047050   0.109221  -0.111507  -0.104630   0.083192
   65  H  7  S   -0.090453  -0.183812  -0.046235   0.097652   0.038247
   66  H  7  S   -0.069839  -0.145882  -0.036813   0.125629   0.049194
   67  H  8  S   -0.086048   0.185156  -0.027803   0.104480  -0.005838
   68  H  8  S   -0.066271   0.146943  -0.022068   0.134320  -0.007637
   69  H  9  S   -0.071469  -0.059947   0.171773  -0.047103   0.093610
   70  H  9  S   -0.053570  -0.047183   0.136267  -0.060440   0.118828
   71  H 10  S   -0.061421  -0.122037  -0.143459  -0.057563  -0.087884
   72  H 10  S   -0.044715  -0.096477  -0.113572  -0.072619  -0.110774

                     16         17         18         19         20
                    0.0744     0.0757     0.1212     0.1216     0.1737
                     A          A          A          A          A   
    1  C  1  S   -0.019331  -0.003904  -0.153743  -0.030823  -0.000555
    2  C  1  S    0.027220   0.005445   0.187250   0.036270   0.000029
    3  C  1  X    0.075164  -0.026192  -0.050351  -0.004997  -0.209889
    4  C  1  Y   -0.007767  -0.025756   0.099703   0.052668  -0.102242
    5  C  1  Z    0.025063   0.072812   0.004559   0.015725   0.203389
    6  C  1  S    0.373427   0.075964   2.707367   0.434218   0.012567
    7  C  1  X    0.322931  -0.118119  -0.140062  -0.021343  -0.654639
    8  C  1  Y    0.001121  -0.107489   0.200319   0.199603  -0.320625
    9  C  1  Z    0.117537   0.322859  -0.015471   0.058272   0.631901
   10  C  1 XX    0.018729   0.001221  -0.015037  -0.001572   0.004959
   11  C  1 YY   -0.017393   0.014412  -0.008793  -0.001134   0.003131
   12  C  1 ZZ   -0.005339  -0.016436  -0.012167  -0.003951  -0.008327
   13  C  1 XY   -0.024782   0.011717   0.001283  -0.002898   0.005555
   14  C  1 XZ    0.010609   0.009921  -0.001710   0.000843  -0.005509
   15  C  1 YZ   -0.010082  -0.027665   0.002139  -0.000502  -0.002467
   16  C  2  S    0.015158   0.003023   0.025019  -0.016364  -0.000512
   17  C  2  S   -0.028237  -0.005572   0.014240   0.089410   0.001922
   18  C  2  X    0.320901  -0.125502  -0.018145   0.038377   0.018524
   19  C  2  Y    0.117971  -0.088125  -0.033782  -0.048050   0.009001
   20  C  2  Z    0.150120   0.341766  -0.023660   0.006408  -0.026118
   21  C  2  S    0.168768   0.033740   0.052450  -0.374718  -0.010897
   22  C  2  X    0.540163  -0.133289   0.237048  -0.090847   0.104651
   23  C  2  Y   -0.170702  -0.177046  -0.663996   0.251008   0.059059
   24  C  2  Z    0.154507   0.425481  -0.093736   0.034878  -0.109827
   25  C  2 XX   -0.016033   0.009162   0.003827   0.002207   0.010666
   26  C  2 YY    0.021745  -0.009382   0.022822   0.001699  -0.006794
   27  C  2 ZZ   -0.000097   0.001355  -0.001881   0.004196  -0.003827
   28  C  2 XY    0.015468  -0.006158  -0.014582   0.003366  -0.004573
   29  C  2 XZ   -0.000101  -0.012679  -0.001256   0.000145  -0.007445
   30  C  2 YZ    0.013689   0.024428   0.001238   0.001221   0.006932
   31  C  3  S   -0.015120  -0.003021  -0.025533   0.015539   0.000395
   32  C  3  S    0.028810   0.005748   0.073467   0.051891   0.000110
   33  C  3  X   -0.314225   0.127545   0.010576  -0.035224   0.019960
   34  C  3  Y   -0.135496   0.084998   0.047902   0.038659   0.012169
   35  C  3  Z   -0.151731  -0.341754   0.024035  -0.007718  -0.012221
   36  C  3  S   -0.170851  -0.034713  -0.356755  -0.117184  -0.004816
   37  C  3  X   -0.249053   0.193142   0.260351  -0.243117   0.097552
   38  C  3  Y   -0.486313   0.045292  -0.486051   0.467618   0.070457
   39  C  3  Z   -0.213876  -0.439071  -0.015440   0.019673  -0.093361
   40  C  3 XX   -0.016080   0.006426   0.003362   0.004026  -0.002543
   41  C  3 YY    0.010534  -0.011982  -0.011717   0.022063   0.009023
   42  C  3 ZZ    0.000132   0.004464   0.004745  -0.000191  -0.006199
   43  C  3 XY    0.023371  -0.005817   0.005122  -0.010672   0.008133
   44  C  3 XZ   -0.003583  -0.014533   0.001693  -0.001234   0.008004
   45  C  3 YZ    0.010551   0.022515  -0.003318   0.002573  -0.006233
   46  C  4  S    0.018131   0.003630   0.039870  -0.151853  -0.000474
   47  C  4  S   -0.025345  -0.005015  -0.049568   0.184011   0.000095
   48  C  4  X   -0.046710   0.029943   0.017428   0.048903  -0.204390
   49  C  4  Y   -0.058534   0.011474   0.010177  -0.110496  -0.113877
   50  C  4  Z   -0.029772  -0.069289   0.013781  -0.009964   0.198540
   51  C  4  S   -0.359376  -0.072517  -0.799965   2.636452   0.014034
   52  C  4  X   -0.231679   0.132530   0.106491   0.102739  -0.644782
   53  C  4  Y   -0.226491   0.060005  -0.033690  -0.274455  -0.353255
   54  C  4  Z   -0.132562  -0.315375   0.051102  -0.035842   0.625317
   55  C  4 XX    0.030017  -0.012765  -0.000215  -0.010626   0.007773
   56  C  4 YY   -0.017677   0.011291   0.006049  -0.010705  -0.000585
   57  C  4 ZZ   -0.008640   0.002229   0.004009  -0.013998  -0.007311
   58  C  4 XY   -0.014629   0.005237   0.000596  -0.002920   0.002095
   59  C  4 XZ    0.001409   0.006346  -0.000188  -0.000029   0.004832
   60  C  4 YZ   -0.014447  -0.032303   0.002625  -0.001163   0.006146
   61  H  5  S   -0.084504   0.094631  -0.020762  -0.010863   0.064774
   62  H  5  S   -0.466549   0.452565  -1.041535  -0.310654   1.192019
   63  H  6  S   -0.042711  -0.120112  -0.020450  -0.010962  -0.047468
   64  H  6  S   -0.269068  -0.599573  -1.037959  -0.310123  -0.899668
   65  H  7  S    0.117636   0.023543  -0.043175   0.003178  -0.017608
   66  H  7  S    0.488935   0.096870  -1.205970  -0.192633  -0.311976
   67  H  8  S   -0.097008  -0.072101   0.021689  -0.035827   0.013188
   68  H  8  S   -0.396637  -0.331439   0.356845  -1.163363   0.222980
   69  H  9  S   -0.010303   0.124717   0.005189  -0.026615  -0.064373
   70  H  9  S    0.004690   0.613645   0.228065  -1.100355  -1.177962
   71  H 10  S    0.115303  -0.051085  -0.006739  -0.020138   0.051293
   72  H 10  S    0.617328  -0.236688   0.130618  -1.053862   0.953721

                     21         22         23         24         25
                    0.1751     0.2061     0.2163     0.2280     0.2696
                     A          A          A          A          A   
    1  C  1  S    0.002314   0.026059  -0.002751   0.043533   0.058852
    2  C  1  S   -0.000133  -0.016466   0.001542  -0.019277  -0.011008
    3  C  1  X    0.203819   0.126304  -0.148359  -0.223160  -0.063845
    4  C  1  Y    0.042913   0.222053  -0.105364   0.135492   0.155803
    5  C  1  Z    0.228658   0.168377   0.253602  -0.071471   0.017195
    6  C  1  S   -0.067797  -1.065209   0.102776  -1.573238  -1.508583
    7  C  1  X    0.639691   0.260566  -0.449090  -0.971849  -0.558588
    8  C  1  Y    0.153753   1.164208  -0.377837   1.199634   1.540043
    9  C  1  Z    0.716078   0.618065   0.787460  -0.116163   0.212240
   10  C  1 XX    0.006960  -0.007785   0.010994   0.005545  -0.005124
   11  C  1 YY   -0.000548   0.017239  -0.012017   0.011475   0.029757
   12  C  1 ZZ   -0.005627  -0.004797   0.000506  -0.007788  -0.009542
   13  C  1 XY   -0.000585   0.001815  -0.006303  -0.023949  -0.016767
   14  C  1 XZ    0.008716   0.001583  -0.009966  -0.002126  -0.002423
   15  C  1 YZ    0.001424   0.013248   0.016956  -0.006812   0.006356
   16  C  2  S   -0.000166  -0.069303   0.006343  -0.087520  -0.053578
   17  C  2  S   -0.002962   0.162793  -0.014363   0.202689  -0.001763
   18  C  2  X   -0.022209  -0.138162   0.123761   0.114133  -0.120253
   19  C  2  Y   -0.000634  -0.004691   0.067801   0.109266   0.321205
   20  C  2  Z   -0.023481  -0.095094  -0.196820   0.095274   0.041744
   21  C  2  S    0.022512  -0.978902   0.072003  -1.015986   2.146326
   22  C  2  X   -0.125091  -1.164960   0.406644  -0.605516  -0.495563
   23  C  2  Y    0.006972   1.859067   0.025349   2.619759   1.254075
   24  C  2  Z   -0.109661  -0.077486  -0.578270   0.539660   0.147475
   25  C  2 XX   -0.002826   0.007033  -0.000301  -0.004634   0.001486
   26  C  2 YY    0.002908  -0.024957   0.007498  -0.016885  -0.009845
   27  C  2 ZZ   -0.000768   0.004604  -0.006135   0.010114   0.003229
   28  C  2 XY    0.008343   0.013215   0.004457   0.020757   0.005811
   29  C  2 XZ    0.003520   0.006693   0.000773  -0.003272   0.000706
   30  C  2 YZ    0.012661  -0.004412  -0.007795   0.000486  -0.001975
   31  C  3  S    0.000607   0.069620  -0.006334   0.088370  -0.051871
   32  C  3  S   -0.004605  -0.163788   0.014415  -0.202397  -0.005964
   33  C  3  X   -0.016348   0.100554  -0.119935  -0.164987   0.155699
   34  C  3  Y   -0.012186   0.085161  -0.075463   0.008170  -0.306652
   35  C  3  Z   -0.024235   0.103093   0.196999  -0.085232  -0.015137
   36  C  3  S    0.042164   0.978438  -0.073761   0.987582   2.177007
   37  C  3  X   -0.084565  -0.578147  -0.258482  -1.560990   0.559431
   38  C  3  Y   -0.040400   2.073938  -0.367839   2.273401  -1.150092
   39  C  3  Z   -0.125997   0.430829   0.546439  -0.104294  -0.071698
   40  C  3 XX    0.003815   0.003881  -0.005405  -0.009993   0.000089
   41  C  3 YY   -0.006475   0.021229   0.002738   0.025844  -0.008312
   42  C  3 ZZ    0.002230  -0.011872   0.001602  -0.004250   0.003239
   43  C  3 XY   -0.007577  -0.016788   0.003773  -0.010943   0.006932
   44  C  3 XZ    0.010233  -0.003135  -0.000937  -0.001360   0.000296
   45  C  3 YZ   -0.006909  -0.001023  -0.010808   0.008565  -0.000561
   46  C  4  S    0.001044  -0.025944   0.002729  -0.044422   0.057742
   47  C  4  S    0.000799   0.016616  -0.001467   0.019536  -0.011064
   48  C  4  X    0.177627  -0.258990   0.168526   0.054448   0.073216
   49  C  4  Y    0.085753   0.080460   0.080844   0.246771  -0.148869
   50  C  4  Z    0.236402  -0.147136  -0.250264   0.106593  -0.009225
   51  C  4  S   -0.026857   1.051430  -0.101575   1.593491  -1.458974
   52  C  4  X    0.560542  -1.070254   0.549471  -0.230943   0.758301
   53  C  4  Y    0.256974   0.676668   0.208685   1.510007  -1.424524
   54  C  4  Z    0.747709  -0.472082  -0.798628   0.359156  -0.050245
   55  C  4 XX   -0.006032  -0.004492   0.007121   0.010714  -0.000035
   56  C  4 YY   -0.000065  -0.002740  -0.010119  -0.028012   0.025246
   57  C  4 ZZ    0.006544   0.002706   0.003570   0.007827  -0.010304
   58  C  4 XY   -0.001650   0.018432  -0.009448   0.003743  -0.021874
   59  C  4 XZ    0.006570  -0.006393  -0.013295   0.005956  -0.000777
   60  C  4 YZ    0.005916   0.005990   0.015322  -0.009887   0.001351
   61  H  5  S   -0.018243  -0.024148  -0.003237  -0.038500  -0.059035
   62  H  5  S   -0.346419  -0.617166   0.995520   0.211680  -0.153176
   63  H  6  S   -0.046424  -0.023034   0.006514  -0.038008  -0.059019
   64  H  6  S   -0.847304  -0.682154  -0.972501   0.133973  -0.154015
   65  H  7  S    0.064262  -0.012952   0.002560  -0.011702  -0.056711
   66  H  7  S    1.238550   0.753190   0.019970  -0.841656  -0.164608
   67  H  8  S    0.065537   0.012790   0.003288   0.015142  -0.056586
   68  H  8  S    1.243538  -0.695184  -0.470927   0.765492  -0.154046
   69  H  9  S   -0.021874   0.020754  -0.008745   0.032204  -0.057855
   70  H  9  S   -0.434580   0.336052   1.129345   0.144121  -0.154078
   71  H 10  S   -0.042608   0.026395  -0.000480   0.044496  -0.058829
   72  H 10  S   -0.791041   0.922610  -0.700875  -0.410561  -0.155592

                     26         27         28         29         30
                    0.4008     0.4433     0.5346     0.5351     0.6139
                     A          A          A          A          A   
    1  C  1  S    0.011661  -0.010488  -0.000397  -0.000099   0.000227
    2  C  1  S    0.284104  -0.194171   0.010821   0.002717  -0.005754
    3  C  1  X    0.159814  -0.186615  -0.185889  -0.203457   0.407110
    4  C  1  Y   -0.416339   0.464636  -0.073295  -0.109964   0.186802
    5  C  1  Z   -0.052190   0.052978  -0.230137   0.194218  -0.215796
    6  C  1  S   -3.661163   1.154155  -0.009470  -0.002913   0.060854
    7  C  1  X   -0.697144   0.389349   0.391761   0.420036  -1.063812
    8  C  1  Y    2.153329  -1.020225   0.129599   0.220388  -0.487863
    9  C  1  Z    0.346803  -0.128645   0.470721  -0.397229   0.554802
   10  C  1 XX    0.004982  -0.004314   0.027839  -0.021955   0.035323
   11  C  1 YY    0.005419  -0.014082  -0.002257  -0.012460   0.008565
   12  C  1 ZZ    0.009748  -0.007347  -0.025623   0.034406  -0.043986
   13  C  1 XY    0.006432   0.000465  -0.002867  -0.022385   0.020742
   14  C  1 XZ   -0.000902   0.002936   0.036413   0.022751  -0.059310
   15  C  1 YZ    0.002150  -0.002113   0.006889   0.012301  -0.014123
   16  C  2  S    0.090168  -0.011627  -0.000253  -0.000083  -0.001528
   17  C  2  S    0.048951  -0.495160   0.033804   0.008958  -0.011860
   18  C  2  X   -0.074139  -0.091638  -0.347815  -0.371088   0.291501
   19  C  2  Y    0.127036   0.178608  -0.092309  -0.189835   0.139344
   20  C  2  Z    0.001058   0.008228  -0.416413   0.357383  -0.151049
   21  C  2  S   -7.432812  -0.620113  -0.037890  -0.013122   0.206492
   22  C  2  X   -2.886044   0.405830   0.241887   0.260458   0.174585
   23  C  2  Y    6.897402  -0.959601   0.064755   0.136124  -0.090282
   24  C  2  Z    0.715992  -0.096936   0.294428  -0.254820  -0.071554
   25  C  2 XX    0.004465  -0.023964  -0.013225  -0.023568  -0.017616
   26  C  2 YY    0.060318  -0.093902   0.020214   0.024979   0.023701
   27  C  2 ZZ   -0.005244  -0.013589   0.003499   0.001299  -0.009931
   28  C  2 XY   -0.029850   0.035897   0.019457   0.017696   0.027053
   29  C  2 XZ   -0.003068   0.004751  -0.005841   0.016961  -0.000891
   30  C  2 YZ    0.009480  -0.011860   0.033794  -0.023356  -0.017497
   31  C  3  S   -0.090129  -0.011581  -0.000293  -0.000059   0.001619
   32  C  3  S   -0.047957  -0.495115   0.033837   0.008800   0.010845
   33  C  3  X   -0.043827   0.070413  -0.331623  -0.369203  -0.270144
   34  C  3  Y    0.138877  -0.187275  -0.134359  -0.201989  -0.136121
   35  C  3  Z    0.022911  -0.024322  -0.419524   0.356038   0.148607
   36  C  3  S    7.436686  -0.602372  -0.020797  -0.002812  -0.210647
   37  C  3  X   -3.173029  -0.444644   0.226844   0.254921  -0.073062
   38  C  3  Y    6.787033   0.962275   0.111495   0.147443  -0.205795
   39  C  3  Z    0.503681   0.074528   0.294329  -0.245760   0.046986
   40  C  3 XX   -0.009062  -0.031690   0.019007   0.017068  -0.030768
   41  C  3 YY   -0.055784  -0.087301  -0.008960  -0.023178   0.025497
   42  C  3 ZZ    0.005462  -0.012321   0.000513   0.008923   0.008886
   43  C  3 XY    0.035593   0.043862  -0.024968  -0.022861   0.017596
   44  C  3 XZ    0.001646   0.002338   0.016149  -0.017058   0.003733
   45  C  3 YZ   -0.004200  -0.004278  -0.027912   0.022100  -0.017728
   46  C  4  S   -0.011783  -0.010527  -0.000556  -0.000137  -0.000337
   47  C  4  S   -0.283444  -0.193338   0.010304   0.002879   0.005779
   48  C  4  X    0.201359   0.220235  -0.191648  -0.207820  -0.411129
   49  C  4  Y   -0.401094  -0.451884  -0.052658  -0.106350  -0.213912
   50  C  4  Z   -0.020294  -0.028201  -0.230332   0.198333   0.209032
   51  C  4  S    3.654477   1.159037   0.004579   0.001689  -0.053418
   52  C  4  X   -1.135857  -0.498734   0.383261   0.426809   1.072427
   53  C  4  Y    1.988615   0.982111   0.133118   0.227570   0.561294
   54  C  4  Z    0.022193   0.048907   0.477311  -0.412138  -0.544320
   55  C  4 XX   -0.011516  -0.011171  -0.025726  -0.032815  -0.050136
   56  C  4 YY   -0.000695  -0.010573   0.000055   0.001838  -0.014379
   57  C  4 ZZ   -0.007936  -0.004040   0.026027   0.031083   0.064978
   58  C  4 XY   -0.000447   0.004586  -0.008712  -0.009217  -0.029951
   59  C  4 XZ   -0.001184   0.000634   0.027686  -0.021912  -0.028248
   60  C  4 YZ    0.003530   0.002215   0.024747  -0.022625  -0.016851
   61  H  5  S   -0.034538   0.025035  -0.066630  -0.228941   0.290895
   62  H  5  S   -0.021607  -0.044085  -0.047306  -0.155260   0.423081
   63  H  6  S   -0.034642   0.025140  -0.168572   0.167574  -0.153096
   64  H  6  S   -0.020681  -0.044148  -0.115924   0.112837  -0.211483
   65  H  7  S   -0.051922   0.052355   0.224804   0.058721  -0.145335
   66  H  7  S    0.078599  -0.052660   0.157599   0.041023  -0.215782
   67  H  8  S    0.051125   0.050617   0.228903  -0.042474   0.033489
   68  H  8  S   -0.072191  -0.051703   0.159460  -0.031388   0.042753
   69  H  9  S    0.039813   0.033002  -0.083276   0.224068   0.245680
   70  H  9  S   -0.006839  -0.046836  -0.061532   0.157161   0.350556
   71  H 10  S    0.031351   0.020228  -0.155425  -0.184153  -0.270961
   72  H 10  S    0.042744  -0.043635  -0.109415  -0.128419  -0.392227

                     31         32         33         34         35
                    0.6153     0.6701     0.6722     0.7652     0.7738
                     A          A          A          A          A   
    1  C  1  S   -0.000406  -0.001812  -0.002877  -0.047455  -0.018310
    2  C  1  S    0.010287   0.018434   0.028209   0.161642   0.023137
    3  C  1  X   -0.215422  -0.381283  -0.157889   0.162762  -0.329917
    4  C  1  Y   -0.031517  -0.204851  -0.067488  -0.350098   0.001736
    5  C  1  Z   -0.459828   0.166268  -0.417849  -0.025287  -0.236031
    6  C  1  S   -0.109874  -0.016448  -0.021043  -0.672164  -1.986077
    7  C  1  X    0.575665   1.029198   0.458218  -0.512930   0.547506
    8  C  1  Y    0.089378   0.485071   0.096484   1.121024   1.219041
    9  C  1  Z    1.204169  -0.434590   1.094673   0.086093   0.875624
   10  C  1 XX    0.051918  -0.014174   0.055717   0.005812  -0.010804
   11  C  1 YY    0.001032  -0.024555  -0.000803  -0.068014  -0.018800
   12  C  1 ZZ   -0.052667   0.040226  -0.052744   0.024126   0.010388
   13  C  1 XY    0.017389  -0.036417   0.006831   0.040009   0.046318
   14  C  1 XZ    0.044257   0.052404   0.044675  -0.003308   0.008053
   15  C  1 YZ    0.025294   0.022566  -0.001953  -0.016605   0.024099
   16  C  2  S    0.002747   0.002897   0.004397   0.022242   0.017128
   17  C  2  S    0.020293  -0.046955  -0.075220  -0.940019  -0.322314
   18  C  2  X   -0.146135   0.372465   0.172377   0.089782   0.509501
   19  C  2  Y   -0.032835   0.164734   0.015617  -0.322935  -0.074511
   20  C  2  Z   -0.303339  -0.170132   0.412904  -0.063660   0.340953
   21  C  2  S   -0.375333   0.041252   0.080957   2.120544  -4.215639
   22  C  2  X   -0.183328  -0.586724  -0.269664  -0.329397  -2.929757
   23  C  2  Y    0.247032  -0.252832  -0.029561   0.993778   4.219598
   24  C  2  Z   -0.129189   0.254530  -0.627700   0.160455  -0.410554
   25  C  2 XX    0.021711   0.002803   0.004957  -0.061145  -0.017825
   26  C  2 YY   -0.001539  -0.011903  -0.002341  -0.020157  -0.077236
   27  C  2 ZZ   -0.013718   0.001553  -0.014818  -0.060675  -0.010440
   28  C  2 XY   -0.010807  -0.013516  -0.004108  -0.012983   0.044135
   29  C  2 XZ    0.018963   0.005758   0.014589  -0.005004   0.010106
   30  C  2 YZ   -0.028917   0.008724  -0.005870   0.008677   0.001443
   31  C  3  S   -0.002736   0.002738   0.004315   0.021873  -0.017082
   32  C  3  S   -0.020027  -0.048491  -0.074824  -0.939233   0.320449
   33  C  3  X    0.133568   0.377572   0.156651  -0.183252  -0.310819
   34  C  3  Y    0.036735   0.197325   0.056102   0.289709  -0.370929
   35  C  3  Z    0.311908  -0.165570   0.412345  -0.006008  -0.381660
   36  C  3  S    0.382136   0.076715   0.104653   2.125662   4.235694
   37  C  3  X   -0.034957  -0.573925  -0.247666   0.516426  -1.097429
   38  C  3  Y    0.279911  -0.273316  -0.056886  -0.917408   4.867243
   39  C  3  Z    0.164425   0.261947  -0.641122  -0.017690   1.223128
   40  C  3 XX    0.014267  -0.017225  -0.009889  -0.048853   0.021177
   41  C  3 YY   -0.008569   0.006894  -0.001256  -0.030129   0.086678
   42  C  3 ZZ   -0.012007   0.002435  -0.000837  -0.063399  -0.002556
   43  C  3 XY   -0.008991   0.003232  -0.001184  -0.024111  -0.029198
   44  C  3 XZ    0.002887   0.001196   0.008518  -0.001095  -0.010260
   45  C  3 YZ   -0.037016  -0.006734   0.018777  -0.002231   0.010524
   46  C  4  S    0.000572  -0.001906  -0.003034  -0.047291   0.018326
   47  C  4  S   -0.009174   0.017375   0.027241   0.160075  -0.023556
   48  C  4  X    0.209569  -0.378081  -0.177055  -0.152041   0.224418
   49  C  4  Y    0.076712  -0.160508  -0.005847   0.354716   0.203691
   50  C  4  Z    0.451306   0.173042  -0.420838   0.034382   0.259177
   51  C  4  S    0.096878  -0.000743  -0.003313  -0.661439   1.967636
   52  C  4  X   -0.552102   0.965276   0.426668   0.492091  -1.303318
   53  C  4  Y   -0.201286   0.477050   0.102949  -1.126910   0.532382
   54  C  4  Z   -1.193376  -0.457510   1.129579  -0.105277  -0.728722
   55  C  4 XX    0.020590  -0.061127  -0.021572   0.006534  -0.015025
   56  C  4 YY    0.009348   0.004867  -0.001867  -0.059973   0.051069
   57  C  4 ZZ   -0.030636   0.057889   0.025957   0.015512  -0.017138
   58  C  4 XY    0.014651  -0.012022  -0.003141   0.052348   0.000726
   59  C  4 XZ   -0.065445  -0.017927   0.050330  -0.002646  -0.020196
   60  C  4 YZ   -0.031385  -0.022745   0.053155  -0.007892   0.023534
   61  H  5  S    0.006129  -0.248949   0.008470  -0.148581  -0.054167
   62  H  5  S   -0.001691  -0.296472  -0.001130  -0.197280  -0.337773
   63  H  6  S   -0.254883   0.106668  -0.218105  -0.148566  -0.040031
   64  H  6  S   -0.376291   0.118891  -0.259078  -0.195537  -0.414698
   65  H  7  S    0.262104   0.139131   0.203340  -0.186962  -0.204627
   66  H  7  S    0.385612   0.163109   0.235791  -0.242113   0.557557
   67  H  8  S   -0.300393   0.027867   0.242441  -0.185042   0.194136
   68  H  8  S   -0.439883   0.025184   0.282293  -0.232268  -0.516638
   69  H  9  S    0.163606   0.188236  -0.159060  -0.155742   0.073142
   70  H  9  S    0.249667   0.214793  -0.201077  -0.213562   0.184215
   71  H 10  S    0.122627  -0.220550  -0.089910  -0.138055   0.031167
   72  H 10  S    0.189479  -0.257612  -0.110306  -0.198616   0.527374

                     36         37         38         39         40
                    0.7954     0.8216     0.8639     0.8640     0.8987
                     A          A          A          A          A   
    1  C  1  S   -0.002765  -0.039260   0.000764   0.000374   0.001847
    2  C  1  S    0.002675   0.035258   0.005608   0.004025   0.004438
    3  C  1  X   -0.267693   0.242543   0.545688  -0.041549   0.276180
    4  C  1  Y   -0.139084   0.098100   0.139485  -0.125142   0.122580
    5  C  1  Z    0.376553   0.151533   0.066073   0.604539  -0.220859
    6  C  1  S   -0.242531  -2.244090   0.231643   0.127872   0.087383
    7  C  1  X    0.714791  -1.109912  -0.815834   0.093819  -0.093883
    8  C  1  Y    0.554285   1.163110  -0.375136   0.110510  -0.099549
    9  C  1  Z   -1.078263  -0.173649  -0.154399  -0.964184   0.048341
   10  C  1 XX   -0.024315   0.031708   0.053186   0.076955  -0.055856
   11  C  1 YY    0.022658  -0.076829  -0.058574   0.041319  -0.046299
   12  C  1 ZZ   -0.001267   0.007991   0.008958  -0.116235   0.104346
   13  C  1 XY    0.023494   0.003670  -0.097096   0.034523  -0.080801
   14  C  1 XZ    0.022077   0.017519   0.078951   0.043785   0.071531
   15  C  1 YZ   -0.039304  -0.028236   0.013494  -0.085794   0.045936
   16  C  2  S    0.001640   0.010038   0.000964   0.000562   0.000650
   17  C  2  S   -0.044891  -0.569476  -0.004344  -0.002534   0.017152
   18  C  2  X    0.362867  -0.107391   0.035039  -0.014734   0.207149
   19  C  2  Y    0.169133  -0.487869   0.071089   0.018200   0.129116
   20  C  2  Z   -0.529336  -0.207089  -0.001956   0.058027  -0.189636
   21  C  2  S   -0.452994  -3.605480  -0.178901  -0.081381   0.097861
   22  C  2  X   -1.116721  -1.347604   0.121240   0.070705  -0.585819
   23  C  2  Y    0.031354   5.229574  -0.318141  -0.178721  -0.526472
   24  C  2  Z    1.391878   0.965757   0.009619  -0.027654   0.577568
   25  C  2 XX   -0.012277  -0.036020  -0.040183  -0.006441  -0.024686
   26  C  2 YY   -0.009416  -0.103134   0.046690  -0.018545   0.036618
   27  C  2 ZZ    0.008132  -0.009203  -0.002771   0.027104  -0.007208
   28  C  2 XY    0.001088   0.050700   0.058415  -0.005816   0.029026
   29  C  2 XZ    0.011242  -0.002264  -0.006600  -0.033133   0.014588
   30  C  2 YZ   -0.004754  -0.010048   0.009148   0.069964  -0.028192
   31  C  3  S   -0.001788  -0.009945   0.000763   0.000324  -0.000572
   32  C  3  S    0.049614   0.575534  -0.022144  -0.012381  -0.017136
   33  C  3  X   -0.335578   0.446137   0.045335  -0.000654  -0.219968
   34  C  3  Y   -0.232290  -0.273994  -0.018409  -0.022804  -0.099810
   35  C  3  Z    0.522372   0.140368   0.013064   0.036444   0.195385
   36  C  3  S    0.458778   3.600309  -0.235105  -0.136777  -0.122596
   37  C  3  X    0.642000  -2.997500  -0.040054  -0.033032   0.731637
   38  C  3  Y    1.033843   4.592149   0.220361   0.089603   0.195223
   39  C  3  Z   -1.296290  -0.091113  -0.010666   0.059940  -0.601860
   40  C  3 XX    0.004065   0.025226   0.064243  -0.009421  -0.032420
   41  C  3 YY    0.014693   0.105201  -0.052018   0.009704   0.029916
   42  C  3 ZZ   -0.004695   0.018989  -0.012674  -0.000778  -0.001880
   43  C  3 XY    0.000868  -0.050387  -0.042173   0.000534   0.027418
   44  C  3 XZ    0.012316  -0.003088  -0.002246   0.023111   0.019076
   45  C  3 YZ    0.004695   0.011668  -0.015652  -0.070629  -0.036675
   46  C  4  S    0.003004   0.038728  -0.000000   0.000016  -0.001867
   47  C  4  S   -0.003904  -0.028665  -0.006662  -0.005773  -0.001068
   48  C  4  X    0.238078  -0.216663   0.514936  -0.067749  -0.268020
   49  C  4  Y    0.145754  -0.081926   0.330511  -0.023984  -0.156273
   50  C  4  Z   -0.394851  -0.144249   0.092181   0.555914   0.276385
   51  C  4  S    0.230689   2.223639   0.208308   0.107672  -0.070785
   52  C  4  X   -0.786390  -0.142655  -0.901985   0.067192   0.132837
   53  C  4  Y   -0.302527   1.544751  -0.420912   0.091854   0.025991
   54  C  4  Z    1.121467   0.405215  -0.134954  -0.906989  -0.152942
   55  C  4 XX   -0.017383   0.028281  -0.147452   0.020006   0.114663
   56  C  4 YY    0.030956   0.033625   0.061500  -0.013253  -0.018302
   57  C  4 ZZ   -0.010757  -0.024033   0.086985  -0.006548  -0.097878
   58  C  4 XY    0.016679  -0.058749   0.022123  -0.000392   0.022154
   59  C  4 XZ    0.027121   0.001562   0.011553   0.030796   0.062404
   60  C  4 YZ   -0.039515  -0.017157   0.021646   0.133273   0.086748
   61  H  5  S    0.124064  -0.296734  -0.443815   0.341770  -0.548869
   62  H  5  S   -0.714509   0.187240   0.946561  -0.679891   0.795654
   63  H  6  S   -0.139520  -0.277792   0.006755  -0.592975   0.396988
   64  H  6  S    0.642823   0.109293   0.046170   1.234981  -0.527493
   65  H  7  S   -0.030103  -0.038396   0.490189   0.278939   0.185820
   66  H  7  S    0.044797  -0.632076  -1.005150  -0.560094  -0.256421
   67  H  8  S   -0.066185   0.073296   0.383562   0.423298   0.100351
   68  H  8  S    0.339023   0.531981  -0.784591  -0.895027  -0.178160
   69  H  9  S    0.174399   0.210149   0.227943  -0.479050  -0.584201
   70  H  9  S   -0.774036   0.102784  -0.469249   1.016142   0.836993
   71  H 10  S   -0.062582   0.311375  -0.556260   0.086136   0.451648
   72  H 10  S    0.465783  -0.269292   1.192085  -0.158483  -0.664842

                     41         42         43         44         45
                    0.9051     0.9195     0.9324     1.0252     1.1527
                     A          A          A          A          A   
    1  C  1  S    0.005476   0.032586  -0.010175  -0.004472   0.013825
    2  C  1  S    0.024112  -0.530861   0.728564  -1.078050  -0.934071
    3  C  1  X    0.268165   0.165989  -0.151700  -0.025429  -0.107814
    4  C  1  Y    0.054026  -0.482791   0.439386   0.116409   0.366233
    5  C  1  Z    0.277727  -0.069739   0.064756   0.025614   0.065566
    6  C  1  S    0.199120   1.953341  -1.563903   0.840252  -0.246495
    7  C  1  X   -0.078049  -0.093896   0.266843  -0.251213  -0.232641
    8  C  1  Y   -0.190770   0.148032  -0.738442   0.877091   0.577039
    9  C  1  Z   -0.105868  -0.000107  -0.099288   0.161722   0.064933
   10  C  1 XX    0.098032  -0.005881   0.004092  -0.027466  -0.048744
   11  C  1 YY   -0.006630  -0.053135   0.111716  -0.110122   0.003073
   12  C  1 ZZ   -0.083968   0.008692  -0.010206  -0.029373  -0.050181
   13  C  1 XY   -0.024441   0.023795  -0.049092   0.050417  -0.008518
   14  C  1 XZ    0.119712  -0.011464  -0.004760   0.033546   0.003878
   15  C  1 YZ    0.013722  -0.016524   0.022434   0.005395   0.020200
   16  C  2  S    0.002211  -0.006578   0.028892  -0.009462   0.047363
   17  C  2  S    0.065290  -0.200842   0.080921   0.045424  -0.435681
   18  C  2  X    0.176993  -0.083783  -0.151459   0.150367  -0.281785
   19  C  2  Y    0.106169   0.185658   0.338378  -0.361181   0.567774
   20  C  2  Z    0.249434   0.019840   0.030408  -0.038004   0.032260
   21  C  2  S    0.359522  -0.592805  -0.934739   1.460543  -5.489845
   22  C  2  X   -0.384978   0.443724   0.036074  -0.791116  -1.713767
   23  C  2  Y   -0.697500  -1.035517  -0.099828   1.838710   4.434091
   24  C  2  Z   -0.813039  -0.115758  -0.018208   0.178498   0.546170
   25  C  2 XX   -0.022130   0.000581  -0.006142   0.014935  -0.032531
   26  C  2 YY    0.030165  -0.014880   0.051654  -0.039258  -0.014172
   27  C  2 ZZ    0.007155   0.010642  -0.021626   0.000558  -0.056677
   28  C  2 XY    0.024454   0.017278  -0.039981  -0.002749  -0.040996
   29  C  2 XZ   -0.006332  -0.001103  -0.002751   0.009655   0.000271
   30  C  2 YZ    0.043542   0.000027   0.006314  -0.017747  -0.008336
   31  C  3  S   -0.001816  -0.003531  -0.029578  -0.009648  -0.047424
   32  C  3  S   -0.047531  -0.181394  -0.100387   0.044383   0.438086
   33  C  3  X   -0.216007   0.090095  -0.136855  -0.169392  -0.229739
   34  C  3  Y   -0.009758  -0.231244   0.309820   0.357792   0.587602
   35  C  3  Z   -0.242915  -0.032924   0.026346   0.025653   0.070801
   36  C  3  S   -0.334255  -0.652555   0.839185   1.444885   5.496348
   37  C  3  X    0.856260  -0.466344  -0.015165   0.841496  -2.138008
   38  C  3  Y   -0.356957   1.095341   0.050971  -1.837532   4.264929
   39  C  3  Z    0.714273   0.123552   0.013093  -0.148232   0.229407
   40  C  3 XX   -0.026237   0.005566   0.008979  -0.020581   0.059302
   41  C  3 YY    0.006764  -0.010773  -0.055122  -0.013259  -0.007756
   42  C  3 ZZ    0.005099   0.006370   0.022766   0.008875   0.052054
   43  C  3 XY    0.028809   0.008223   0.039111   0.032277   0.013239
   44  C  3 XZ   -0.024052  -0.000758   0.003310  -0.001268   0.008016
   45  C  3 YZ    0.039983  -0.002298  -0.008467   0.014085  -0.017711
   46  C  4  S   -0.007827   0.031090   0.014252  -0.004421  -0.013889
   47  C  4  S    0.018248  -0.437991  -0.782214  -1.085107   0.935039
   48  C  4  X   -0.179825  -0.240341  -0.263216   0.065298  -0.198823
   49  C  4  Y   -0.129302   0.387480   0.457589  -0.098960   0.329799
   50  C  4  Z   -0.325826  -0.014344   0.000913   0.005374  -0.002002
   51  C  4  S   -0.336060   1.767539   1.792941   0.857547   0.231701
   52  C  4  X    0.120140   0.011148   0.380958   0.495092  -0.272710
   53  C  4  Y   -0.105469  -0.058681  -0.695343  -0.791922   0.560584
   54  C  4  Z    0.155607  -0.010262  -0.014419   0.015855   0.033630
   55  C  4 XX    0.079982   0.009554  -0.015763  -0.051240   0.033263
   56  C  4 YY   -0.005908  -0.032158  -0.101021  -0.119747   0.018470
   57  C  4 ZZ   -0.077601  -0.014593   0.006752   0.003248   0.044310
   58  C  4 XY    0.022594   0.031720   0.073299   0.033583   0.037051
   59  C  4 XZ   -0.086018  -0.014053  -0.002269   0.023272  -0.007742
   60  C  4 YZ   -0.098856  -0.012395  -0.007587  -0.003344   0.004891
   61  H  5  S   -0.141237   0.444684  -0.299403   0.023179   0.074171
   62  H  5  S    0.288888  -0.600649   0.733223  -0.634579  -0.384884
   63  H  6  S   -0.373441   0.437104  -0.300196   0.024481   0.074262
   64  H  6  S    0.582867  -0.593782   0.732103  -0.636592  -0.384677
   65  H  7  S    0.593881   0.364499  -0.283965   0.134765   0.105004
   66  H  7  S   -0.795720  -0.545705   0.720020  -0.700690  -0.425827
   67  H  8  S   -0.635494   0.285908   0.312678   0.126979  -0.102651
   68  H  8  S    0.857994  -0.385187  -0.746682  -0.695788   0.421426
   69  H  9  S    0.182827   0.392826   0.349091   0.055916  -0.084561
   70  H  9  S   -0.348030  -0.505281  -0.798298  -0.660791   0.400656
   71  H 10  S    0.281910   0.448197   0.367311   0.008134  -0.070463
   72  H 10  S   -0.449547  -0.560161  -0.821192  -0.640881   0.382026

                     46         47         48         49         50
                    1.3764     1.3862     1.4659     1.5546     1.5589
                     A          A          A          A          A   
    1  C  1  S   -0.043009   0.002365  -0.125399  -0.100979   0.007876
    2  C  1  S   -0.513039   0.028451  -1.283061  -0.953506   0.126823
    3  C  1  X   -0.097623  -0.056089   0.049316   0.090614  -0.024456
    4  C  1  Y   -0.043847  -0.034384  -0.147126  -0.148369  -0.077473
    5  C  1  Z   -0.063825   0.109928  -0.022808  -0.020572  -0.038030
    6  C  1  S    2.334816  -0.131545   7.490597   5.916971   1.121297
    7  C  1  X    0.190706  -0.032817   0.794471   0.461915   0.284118
    8  C  1  Y   -0.590532   0.024344  -2.083860  -1.819866  -0.387744
    9  C  1  Z   -0.106660   0.016446  -0.266797  -0.178710   0.176920
   10  C  1 XX    0.069196   0.268823  -0.056880  -0.098289  -0.001950
   11  C  1 YY   -0.111677  -0.137655   0.006562   0.034273  -0.053225
   12  C  1 ZZ   -0.014746  -0.128038  -0.066236  -0.018720   0.047437
   13  C  1 XY   -0.245419  -0.033529  -0.015119  -0.005133  -0.117012
   14  C  1 XZ   -0.178281  -0.199177   0.011830   0.069582  -0.105660
   15  C  1 YZ   -0.243769   0.276099   0.024365   0.063296  -0.052139
   16  C  2  S    0.008130  -0.000507   0.012442   0.017303  -0.016893
   17  C  2  S    0.110933  -0.004270   0.811804   0.155448  -0.312462
   18  C  2  X    0.051266   0.046916   0.055927  -0.130178   0.032921
   19  C  2  Y    0.100910   0.022423  -0.044346   0.297090   0.018922
   20  C  2  Z    0.059975  -0.087554   0.018539   0.017009  -0.005724
   21  C  2  S   -1.506573   0.089623   3.456238  -2.803985   6.985584
   22  C  2  X    0.440504  -0.028828   2.740363   1.777283   1.540659
   23  C  2  Y   -1.152240   0.061521  -7.221656  -4.262657  -4.238351
   24  C  2  Z   -0.135384   0.031053  -0.918908  -0.565409  -0.576279
   25  C  2 XX   -0.188259  -0.047059   0.044856  -0.128486  -0.489199
   26  C  2 YY    0.161932   0.190855  -0.044329  -0.078706   0.092517
   27  C  2 ZZ    0.040347  -0.144617   0.038321   0.251289   0.413209
   28  C  2 XY    0.260646   0.160197   0.043944  -0.130841  -0.142554
   29  C  2 XZ   -0.103332   0.143260   0.011883   0.337170  -0.226914
   30  C  2 YZ    0.163227  -0.295941  -0.007388   0.049563  -0.174663
   31  C  3  S    0.008264  -0.000489  -0.012441   0.022015   0.007069
   32  C  3  S    0.115654  -0.009100  -0.809848   0.256505   0.211239
   33  C  3  X    0.111410   0.044590  -0.006056   0.116582  -0.055950
   34  C  3  Y   -0.037354   0.031958  -0.069231  -0.263616   0.150162
   35  C  3  Z    0.049107  -0.087289  -0.027332  -0.045700  -0.009526
   36  C  3  S   -1.553070   0.096441  -3.473803  -5.229355  -4.985231
   37  C  3  X   -0.541625   0.016395   3.518429  -1.030423   2.884588
   38  C  3  Y    1.078483  -0.081346  -6.915635   2.175414  -5.603638
   39  C  3  Z    0.051264   0.010797  -0.341309   0.262206  -0.321620
   40  C  3 XX    0.263417   0.194941  -0.019566  -0.184488  -0.371201
   41  C  3 YY   -0.197166  -0.162095   0.040081  -0.068624  -0.155517
   42  C  3 ZZ   -0.052165  -0.033772  -0.059113   0.286619   0.490197
   43  C  3 XY   -0.177234  -0.089313  -0.044598  -0.050768  -0.180321
   44  C  3 XZ    0.021403  -0.118185  -0.005645   0.276442  -0.276325
   45  C  3 YZ   -0.206632   0.327079   0.002643   0.193286  -0.090207
   46  C  4  S   -0.043175   0.002783   0.125650  -0.093967   0.040851
[...]
                   Y  0.14249763 -0.01443006  0.04080297 -0.24860851 -0.02494894
                   Z -0.05013040  0.54311722 -0.17581718 -0.03467852  0.09152996

 TRANS. SAYVETZ    X  0.29505933 -0.01241350  0.00006976 -0.00038217  0.00001374
                   Y  0.12320543 -0.00260550 -0.00006802  0.00012844  0.00000269
                   Z -0.45832660 -0.04255958 -0.00065757 -0.00006903 -0.00003224
               TOTAL  0.55884064  0.04440947  0.00066475  0.00040904  0.00003515

   ROT. SAYVETZ    X 10.38143046 -3.29484701 -0.01561239  0.01432690  0.00302776
                   Y  1.71874150 -3.47695134  0.01192893 -0.00311256  0.00212372
                   Z 19.90612013  2.92578827 -0.00719678 -0.01766453 -0.00362840
               TOTAL 22.51625611  5.61297108  0.02092462  0.02295613  0.00518100

                           11          12          13          14          15
       FREQUENCY:       375.71      730.57     1060.24     1060.94     1081.79  
        SYMMETRY:         A           A           A           A           A   
    REDUCED MASS:      4.20500     3.65872     1.39878     1.39802     1.37537
    IR INTENSITY:      0.00001     0.00000     0.01137     0.01152     0.08151

  1   C            X  0.01296642  0.07254316  0.02057535  0.07985754 -0.02128293
                   Y  0.00558188 -0.16355354  0.00115073  0.03722493 -0.00137187
                   Z  0.00102451 -0.01484349  0.08792850 -0.02003195 -0.09085373
  2   C            X -0.16945525  0.01079772 -0.01213188 -0.06074069  0.01639881
                   Y -0.07422905 -0.02452120  0.00066946 -0.02792783  0.00229493
                   Z -0.01074250 -0.00180576 -0.06663801  0.01122270  0.05607149
  3   C            X  0.16973276 -0.01106007 -0.01798997  0.05893256 -0.01963562
                   Y  0.07423054  0.02433416 -0.01355475  0.02410724 -0.01339585
                   Z  0.01022870  0.00249593  0.06372688  0.02237660  0.05359469
  4   C            X -0.01315507 -0.07237387  0.02835520 -0.07696999  0.02659096
                   Y -0.00563457  0.16369335  0.01985324 -0.03098500  0.01952359
                   Z -0.00049140  0.01436511 -0.08316281 -0.03452882 -0.08751144
  5   H            X  0.15581694  0.07751961 -0.02880769 -0.25298782  0.03527117
                   Y -0.12370249 -0.16845941 -0.09097173  0.34472462  0.08489906
                   Z -0.00975333 -0.01687906 -0.19763613  0.03189551  0.19533108
  6   H            X  0.08020078  0.07482015 -0.21582583 -0.12294601  0.22001043
                   Y  0.04734187 -0.16909672  0.35309595 -0.20355858 -0.35273202
                   Z  0.00628253 -0.01270445 -0.05178257 -0.00745589  0.04996914
  7   H            X  0.01788430  0.07301003  0.15174598 -0.00702234 -0.15225521
                   Y  0.18743145 -0.17046654 -0.26554088 -0.31915498  0.27571316
                   Z  0.01898889 -0.01714139 -0.17311804  0.06592770  0.17177784
  8   H            X -0.13127273 -0.07620820  0.00361497  0.26343234  0.00817951
                   Y  0.06686555  0.16940774 -0.28635132 -0.25740700 -0.29397454
                   Z  0.00417136  0.01221328  0.10935107 -0.03310193  0.10697281
  9   H            X -0.11784102 -0.07575965 -0.18383824  0.18777972 -0.18345161
                   Y  0.03904853  0.16812877  0.37130207  0.02569137  0.37760805
                   Z  0.00153228  0.01702489  0.11643906  0.08278452  0.11779851
 10   H            X -0.00581891 -0.07236909  0.04916155 -0.08110973  0.04758306
                   Y -0.21636434  0.17113634 -0.17819839  0.38090192 -0.17546332
                   Z -0.02145539  0.01480087  0.17466437  0.10954016  0.17614982

 TRANS. SAYVETZ    X  0.00002761 -0.00009604  0.00000281 -0.00000123 -0.00000091
                   Y  0.00001104  0.00008844  0.00000363  0.00000395  0.00000308
                   Z -0.00000392 -0.00016546 -0.00000027  0.00000556  0.00001213
               TOTAL  0.00002999  0.00021077  0.00000460  0.00000693  0.00001255

   ROT. SAYVETZ    X -0.00506603 -0.00008124  0.00185431  0.00136465  0.00014266
                   Y  0.00439734 -0.00004370 -0.00024340 -0.00025616 -0.00059550
                   Z -0.01422565 -0.00019116 -0.00158208  0.00231306 -0.00012663
               TOTAL  0.01572801  0.00021225  0.00244963  0.00269780  0.00062530

                           16          17          18          19          20
       FREQUENCY:      1082.31     1180.10     1442.77     1448.98     1509.22  
        SYMMETRY:         A           A           A           A           A   
    REDUCED MASS:      1.37445     4.56483     1.28097     1.21032     1.04117
    IR INTENSITY:      0.07967     0.00835     0.24738     0.00001     0.06605

  1   C            X -0.08263139  0.04525175  0.03909628 -0.03530582  0.00118612
                   Y -0.03835520 -0.10200824 -0.08825156  0.07976094  0.00489691
                   Z  0.01917666 -0.00929310 -0.00800564  0.00720002 -0.04827971
  2   C            X  0.05094608 -0.06113668 -0.00650367 -0.00129341  0.00027040
                   Y  0.02395570  0.13787211  0.01469013  0.00294641  0.00164076
                   Z -0.01525014  0.01251997  0.00124525  0.00033056 -0.01729557
  3   C            X  0.05014398 -0.06097000 -0.00653386  0.00129889  0.00170455
                   Y  0.02019129  0.13800222  0.01462750 -0.00309928  0.00018984
                   Z  0.02283106  0.01205525  0.00140291 -0.00016671  0.00588233
  4   C            X -0.08159572  0.04509757  0.03917548  0.03489620  0.00549665
                   Y -0.03333440 -0.10210866 -0.08891183 -0.07920712  0.00132430
                   Z -0.03139512 -0.00885377 -0.00768821 -0.00684574  0.01364667
  5   H            X  0.25335942  0.07720436 -0.25552669  0.26343941  0.35915516
                   Y -0.34842431 -0.13563170  0.23051928 -0.24248717 -0.06057905
                   Z -0.03295146 -0.01970588  0.08738750 -0.08960994  0.49729173
  6   H            X  0.12038522  0.06182773 -0.11883232  0.12430315 -0.10074930
                   Y  0.20549688 -0.14421250  0.31099736 -0.32446635  0.34855565
                   Z  0.00585313  0.00367479 -0.12345570  0.12478739 -0.12653895
  7   H            X  0.00445541  0.05029362 -0.01373032  0.01742485 -0.27751464
                   Y  0.31910277 -0.14722075  0.33462875 -0.34842346 -0.36393990
                   Z -0.06676909 -0.02287701  0.11615298 -0.11862816  0.38171647
  8   H            X  0.26645346  0.07166610 -0.20698923 -0.21094297  0.08695744
                   Y -0.25355920 -0.13972639  0.27119092  0.27986939 -0.07020975
                   Z -0.03652414  0.00178223 -0.10527058 -0.10485486  0.01472001
  9   H            X  0.19361425  0.06967932 -0.19213135 -0.19627108 -0.16088084
                   Y  0.01250862 -0.13815741  0.25701804  0.26573972  0.00153637
                   Z  0.08084432 -0.02721672  0.16044406  0.16156011 -0.03976197
 10   H            X -0.08649355  0.04745377  0.01046424  0.00694006 -0.01005305
                   Y  0.39280623 -0.14941819  0.35602838  0.36492262  0.04876317
                   Z  0.10477535 -0.01220500  0.02008238  0.02065071 -0.17915955

 TRANS. SAYVETZ    X  0.00001214 -0.00000462 -0.00001286  0.00008202  0.00000073
                   Y -0.00001417  0.00003678  0.00000864 -0.00007171 -0.00000210
                   Z  0.00000972 -0.00000630  0.00000778  0.00007520  0.00000262
               TOTAL  0.00002104  0.00003760  0.00001733  0.00013238  0.00000344

   ROT. SAYVETZ    X -0.00211938 -0.00009875 -0.00343579  0.00068003  0.00111509
                   Y  0.00388088  0.00004222 -0.00120716  0.00024499 -0.00105710
                   Z  0.00108481 -0.00051864 -0.00084539  0.00015081 -0.00069370
               TOTAL  0.00455300  0.00052964  0.00373853  0.00073838  0.00168585

                           21          22          23          24          25
       FREQUENCY:      1509.47     1510.05     1510.33     2377.82     3032.87  
        SYMMETRY:         A           A           A           A           A   
    REDUCED MASS:      1.04056     1.04052     1.03995    11.76749     1.03476
    IR INTENSITY:      0.13131     0.12786     0.18721     0.00000     1.29217

  1   C            X  0.01122009  0.00705654 -0.04434983 -0.01048593 -0.00497020
                   Y  0.00422227  0.00409458 -0.01924704  0.02366927  0.01215261
                   Z  0.00810160 -0.01074727 -0.00289445  0.00217326  0.00176381
  2   C            X  0.00432630  0.00343709 -0.01514492  0.08169791  0.00076924
                   Y  0.00165468  0.00180621 -0.00663350 -0.18431244 -0.00173606
                   Z  0.00180230 -0.00334482 -0.00120279 -0.01648808 -0.00015044
  3   C            X -0.00854499 -0.01331277 -0.00272052 -0.08165540 -0.00095161
                   Y -0.00506528 -0.00508412 -0.00141249  0.18433503  0.00214775
                   Z  0.01375969 -0.00915283  0.00231242  0.01637633  0.00017826
  4   C            X -0.02396006 -0.03783334 -0.01075849  0.01045407 -0.01927240
                   Y -0.01352416 -0.01427371 -0.00513516 -0.02369125  0.04253480
                   Z  0.03978542 -0.02698606  0.00571479 -0.00205480  0.00165000
  5   H            X -0.02898658  0.10487270 -0.12290064 -0.01139063 -0.09707570
                   Y -0.05022074 -0.05064068  0.25134549  0.01249175 -0.10508632
                   Z -0.16871618  0.06830669  0.35928806  0.00372320  0.05293051
  6   H            X -0.13506098 -0.11380519  0.61424534 -0.00620382  0.03174597
                   Y -0.11793769  0.05089102  0.24453238  0.01551657 -0.03064337
                   Z  0.00015682 -0.04263700  0.08099130 -0.00461384 -0.15042354
  7   H            X -0.00516508 -0.09552346  0.20198123 -0.00219958  0.12341747
                   Y  0.10591177 -0.06210700 -0.19423952  0.01649709 -0.00655346
                   Z  0.03597069  0.14916264 -0.39582902  0.00480659  0.07666504
  8   H            X  0.55274454  0.00536872  0.13647087  0.00947768 -0.17975179
                   Y  0.11084499  0.37050955  0.08103309 -0.01402456 -0.24132469
                   Z -0.27443004 -0.24329837 -0.10215910  0.00367504 -0.43508927
  9   H            X -0.14523478  0.56642676  0.04489333  0.00893339 -0.13556556
                   Y  0.29643936  0.18438405  0.10102486 -0.01323347 -0.30883936
                   Z  0.19993920  0.29552645  0.09231676 -0.00659281  0.44587153
 10   H            X -0.03636927  0.01671116 -0.00579522  0.00120142  0.54804235
                   Y -0.19367072 -0.33280439 -0.09757198 -0.01720884  0.03640414
                   Z -0.54839944  0.37103820 -0.08139912 -0.00110462 -0.03093909

 TRANS. SAYVETZ    X  0.00000394  0.00000872  0.00000887 -0.00005510 -0.00001124
                   Y  0.00000146  0.00000184  0.00000746  0.00004608  0.00001270
                   Z -0.00000260  0.00000705  0.00000242 -0.00002673 -0.00000585
               TOTAL  0.00000494  0.00001136  0.00001184  0.00007664  0.00001794

   ROT. SAYVETZ    X  0.00013258 -0.00003306 -0.00005154 -0.00017853  0.00037616
                   Y  0.00146381  0.00015765  0.00161236 -0.00014012  0.00015030
                   Z -0.00004317 -0.00140898  0.00051142 -0.00023737  0.00025292
               TOTAL  0.00147044  0.00141815  0.00169231  0.00032841  0.00047755

                           26          27          28          29          30
       FREQUENCY:      3033.52     3090.62     3091.11     3093.28     3094.40  
        SYMMETRY:         A           A           A           A           A   
    REDUCED MASS:      1.03467     1.10128     1.10127     1.10147     1.10146
    IR INTENSITY:      0.41319     0.67665     0.05776     0.54958     0.27452

  1   C            X  0.01740902  0.00833011  0.02441093 -0.01215604 -0.07560932
                   Y -0.04276489  0.00820308  0.01818219 -0.00375245 -0.02954515
                   Z -0.00627770 -0.04198338 -0.06964957 -0.01380251 -0.02888903
  2   C            X  0.00156488  0.00003626  0.00005118 -0.00009397 -0.00021391
                   Y -0.00354320  0.00006424  0.00004648  0.00003316 -0.00002940
                   Z -0.00032853 -0.00014450 -0.00017350 -0.00006514 -0.00006661
  3   C            X -0.00146868  0.00014734 -0.00003130 -0.00013645 -0.00000223
                   Y  0.00331071  0.00005771 -0.00004977 -0.00011367 -0.00005915
                   Z  0.00029156 -0.00017651  0.00006480 -0.00016628  0.00002003
  4   C            X -0.00522423  0.04883983 -0.02105709 -0.05974148  0.00816526
                   Y  0.01153385  0.02544625 -0.01196208 -0.02246470  0.00253729
                   Z  0.00042394 -0.05280305  0.03681831 -0.05752032  0.01537732
  5   H            X  0.34816022 -0.15496253 -0.31375873  0.02888450  0.32854882
                   Y  0.38049814 -0.17203641 -0.34997090  0.03426496  0.37700561
                   Z -0.19025003  0.07497260  0.15730286 -0.02081812 -0.19652270
  6   H            X -0.11528324 -0.07697948 -0.12750601 -0.02541977 -0.05274598
                   Y  0.11267319  0.08086140  0.13803171  0.02114139  0.02662885
                   Z  0.54121855  0.35694817  0.60448322  0.09976819  0.15148336
  7   H            X -0.44449377  0.13262629  0.14942611  0.14160111  0.62775610
                   Y  0.02599317 -0.00672402 -0.00526809 -0.01074714 -0.05066557
                   Z -0.27519473  0.06961497  0.07074818  0.08571849  0.39032719
  8   H            X -0.04951149  0.06286107 -0.06341114  0.23916009 -0.05200188
                   Y -0.06755930  0.07647320 -0.08344264  0.34505870 -0.07402544
                   Z -0.12066748  0.11063646 -0.13355787  0.60681841 -0.12857133
  9   H            X -0.03733403 -0.14290102  0.08849606 -0.05673144  0.02181116
                   Y -0.08637951 -0.35674745  0.21604464 -0.10338883  0.04723000
                   Z  0.12366484  0.50459355 -0.30295867  0.12531377 -0.06272255
 10   H            X  0.15222105 -0.50354724  0.22658386  0.53132692 -0.06774565
                   Y  0.00941348 -0.02393726  0.01058225  0.02679366 -0.00353856
                   Z -0.00864241  0.01565940 -0.00380726 -0.04481027  0.00744382

 TRANS. SAYVETZ    X -0.00001374 -0.00000414  0.00000060  0.00000636  0.00000419
                   Y  0.00000838 -0.00000170 -0.00000036  0.00000110  0.00000262
                   Z -0.00001127 -0.00000295  0.00000008  0.00000633  0.00000152
               TOTAL  0.00001965  0.00000536  0.00000071  0.00000904  0.00000517

   ROT. SAYVETZ    X -0.00017789 -0.00000549 -0.00001724 -0.00033955 -0.00020154
                   Y -0.00004200  0.00005225  0.00001697  0.00066916  0.00046393
                   Z -0.00014033  0.00000766 -0.00006395  0.00010102  0.00010474
               TOTAL  0.00023044  0.00005310  0.00006837  0.00075715  0.00051655

 REFERENCE ON SAYVETZ CONDITIONS - A. SAYVETZ, J.CHEM.PHYS., 7, 383-389(1939).

 NOTE - THE MODES J,K ARE ORTHONORMALIZED ACCORDING TO
 SUM ON I   M(I) * (X(I,J)*X(I,K) + Y(I,J)*Y(I,K) + Z(I,J)*Z(I,K)) = DELTA(J,K)

  MODE FREQ(CM**-1)  SYMMETRY  RED. MASS  IR INTENS.
     1       9.505    A        1.056808    0.000005
     2       7.560    A        2.728203    0.000001
     3       0.120    A        5.400031    0.000000
     4       0.044    A        5.404166    0.000000
     5       0.321    A        5.368960    0.000000
     6       3.137    A        2.772534    0.000001
     7      20.778    A        1.045693    0.000013
     8     207.591    A        2.775051    0.207063
     9     208.047    A        2.776027    0.207089
    10     375.503    A        4.207953    0.000014
    11     375.710    A        4.204996    0.000010
    12     730.572    A        3.658717    0.000004
    13    1060.237    A        1.398783    0.011373
    14    1060.940    A        1.398017    0.011525
    15    1081.792    A        1.375372    0.081508
    16    1082.307    A        1.374454    0.079672
    17    1180.096    A        4.564829    0.008346
    18    1442.766    A        1.280965    0.247384
    19    1448.980    A        1.210316    0.000007
    20    1509.218    A        1.041175    0.066050
    21    1509.468    A        1.040560    0.131306
    22    1510.055    A        1.040520    0.127862
    23    1510.327    A        1.039948    0.187207
    24    2377.815    A       11.767491    0.000003
    25    3032.875    A        1.034760    1.292171
    26    3033.515    A        1.034667    0.413194
    27    3090.623    A        1.101284    0.676648
    28    3091.114    A        1.101275    0.057759
    29    3093.279    A        1.101474    0.549578
    30    3094.405    A        1.101463    0.274519

     -------------------------------
     THERMOCHEMISTRY AT T=  298.15 K
     -------------------------------

 USING IDEAL GAS, RIGID ROTOR, HARMONIC NORMAL MODE APPROXIMATIONS.
 P=  1.01325E+05 PASCAL.
 ALL FREQUENCIES ARE SCALED BY   1.00000
 THE MOMENTS OF INERTIA ARE (IN AMU*BOHR**2)
             22.54608           540.00785           540.03150
 THE ROTATIONAL SYMMETRY NUMBER IS  1.0
 THE ROTATIONAL CONSTANTS ARE (IN GHZ)
     79.97347     3.33900     3.33886
      7 -     30 VIBRATIONAL MODES ARE USED IN THERMOCHEMISTRY.
 THE HARMONIC ZERO POINT ENERGY IS (SCALED BY   1.000)
        0.084584 HARTREE/MOLECULE    18564.006477 CM**-1/MOLECULE 
       53.077211 KCAL/MOL              222.075052 KJ/MOL

               Q               LN Q
 ELEC.     1.00000E+00       0.000000
 TRANS.    1.56175E+07      16.563900
 ROT.      2.90260E+04      10.275946
 VIB.      3.96762E+01       3.680752
 TOT.      1.79857E+13      30.520598

              E         H         G         CV        CP        S
           KJ/MOL    KJ/MOL    KJ/MOL   J/MOL-K   J/MOL-K   J/MOL-K
 ELEC.      0.000     0.000     0.000     0.000     0.000     0.000
 TRANS.     3.718     6.197   -41.061    12.472    20.786   158.505
 ROT.       3.718     3.718   -25.473    12.472    12.472    97.910
 VIB.     229.754   229.754   212.951    47.586    47.586    56.358
 TOTAL    237.191   239.669   146.416    72.529    80.844   312.773
 VIB. THERMAL CORRECTION E(T)-E(0) = H(T)-H(0) =      7678.628 J/MOL

              E         H         G         CV        CP        S
         KCAL/MOL  KCAL/MOL  KCAL/MOL CAL/MOL-K CAL/MOL-K CAL/MOL-K
 ELEC.      0.000     0.000     0.000     0.000     0.000     0.000
 TRANS.     0.889     1.481    -9.814     2.981     4.968    37.884
 ROT.       0.889     0.889    -6.088     2.981     2.981    23.401
 VIB.      54.912    54.912    50.896    11.373    11.373    13.470
 TOTAL     56.690    57.282    34.994    17.335    19.322    74.754
 VIB. THERMAL CORRECTION E(T)-E(0) = H(T)-H(0) =      1835.236 CAL/MOL
 ......END OF NORMAL COORDINATE ANALYSIS......
 STEP CPU TIME =     0.00 TOTAL CPU TIME =        940.4 (     15.7 MIN)
 TOTAL WALL CLOCK TIME=        947.2 SECONDS, CPU UTILIZATION IS    99.29%
               1090025  WORDS OF DYNAMIC MEMORY USED
 EXECUTION OF GAMESS TERMINATED NORMALLY Mon Oct  3 02:33:48 2022
 DDI: 263640 bytes (0.3 MB / 0 MWords) used by master data server.

 ----------------------------------------
 CPU timing information for all processes
 ========================================
 0: 936.610 + 3.835 = 940.445
 ----------------------------------------
 ddikick.x: exited gracefully.
----- accounting info -----
Files used on the master node chemcompute-node-0.novalocal were:
-rw-r--r--. 1 chemcomp chemcomp     1077 Oct  3 02:18 /scratch/120219/459408.F05
-rw-rw-r--. 1 chemcomp chemcomp 65536000 Oct  3 02:33 /scratch/120219/459408.F10
-rw-rw-r--. 1 chemcomp chemcomp  5089776 Oct  3 02:33 /scratch/120219/459408.F22
Mon Oct  3 02:33:51 UTC 2022
0.098u 0.039s 15:50.55 0.0%	0+0k 8+208io 0pf+0w
Finishing Up...
Looking for IR data...
Looking for Raman data...
vibramans not found
Looking for thermodynamics data...
Looking for UV-Vis data...
chemcompute.org
{'UTCtimestamp': '2022-10-03T02:33:53.651457', 'cluster': 'jetstream2', 'clusterJobNumber': '120219', 'status': 'COMPLETE', 'nodeList': 'chemcompute-node-0'}
120219
