chemcompute.org
{'UTCtimestamp': '2022-10-03T02:23:30.673523', 'cluster': 'jetstream2', 'clusterJobNumber': '120221', 'status': 'RUNNING', 'nodeList': 'chemcompute-node-0'}
----- GAMESS execution script 'rungms' -----
This job is running on host chemcompute-node-0.novalocal
under operating system Linux at Mon Oct 3 02:23:34 UTC 2022
SLURM has assigned the following compute nodes to this run:
Available scratch disk space (Kbyte units) at beginning of the job is
Filesystem     1K-blocks     Used Available Use% Mounted on
/dev/sda1       62903276 11773708  51129568  19% /
GAMESS temporary binary files will be written to /scratch/120221
GAMESS supplementary output files will be written to /data/slurm/45/459410
Copying input file 459410.inp to your run's scratch directory...
The generated host list is
chemcompute-node-0.novalocal

 Distributed Data Interface kickoff program.
 Initiating 1 compute processes on 1 nodes to run the following command:
 /data/gamess-2019R1-avx2-ddi/gamess.00.x 459410 

          ******************************************************
          *         GAMESS VERSION = 30 JUN 2019 (R1)          *
          *             FROM IOWA STATE UNIVERSITY             *
          * M.W.SCHMIDT, K.K.BALDRIDGE, J.A.BOATZ, S.T.ELBERT, *
          *   M.S.GORDON, J.H.JENSEN, S.KOSEKI, N.MATSUNAGA,   *
          *          K.A.NGUYEN, S.J.SU, T.L.WINDUS,           *
          *       TOGETHER WITH M.DUPUIS, J.A.MONTGOMERY       *
          *         J.COMPUT.CHEM.  14, 1347-1363(1993)        *
          **************** 64 BIT INTEL VERSION ****************

  SINCE 1993, STUDENTS AND POSTDOCS WORKING AT IOWA STATE UNIVERSITY
  AND ALSO IN THEIR VARIOUS JOBS AFTER LEAVING ISU HAVE MADE IMPORTANT
  CONTRIBUTIONS TO THE CODE:
     IVANA ADAMOVIC, CHRISTINE AIKENS, YURI ALEXEEV, POOJA ARORA,
     ANDREY ASADCHEV, ROB BELL, PRADIPTA BANDYOPADHYAY, JONATHAN BENTZ,
     COLLEEN BERTONI, BRETT BODE, KURT BRORSEN, CALEB CARLIN, GALINA CHABAN,
     WEI CHEN, CHEOL HO CHOI, PAUL DAY, ALBERT DEFUSCO, NUWAN DESILVA,
     TIM DUDLEY, DMITRI FEDOROV, ALEX FINDLATER, GRAHAM FLETCHER, 
     MARK FREITAG, KURT GLAESEMANN, ANASTASIA GUNINA,
     DAN KEMP, GRANT MERRILL, NORIYUKI MINEZAWA, JONATHAN MULLIN,
     TAKESHI NAGATA, SEAN NEDD, HEATHER NETZLOFF, BOSILJKA NJEGIC, RYAN OLSON,
     MIKE PAK, BUU PHAM,
     SPENCER PRUITT, LUKE ROSKOP, JIM SHOEMAKER, LYUDMILA SLIPCHENKO,
     TONY SMITH, SAROM SOK LEANG, JIE SONG, TETSUYA TAKETSUGU, SIMON WEBB,
     PENG XU, SOOHAENG YOO, FEDERICO ZAHARIEV

  ADDITIONAL CODE HAS BEEN PROVIDED BY COLLABORATORS IN OTHER GROUPS:
     IOWA STATE UNIVERSITY:
          JOE IVANIC, AARON WEST, LAIMUTIS BYTAUTAS, KLAUS RUEDENBERG
     UNIVERSITY OF TOKYO: KIMIHIKO HIRAO, TAKAHITO NAKAJIMA,
          TAKAO TSUNEDA, MUNEAKI KAMIYA, SUSUMU YANAGISAWA,
          KIYOSHI YAGI, MAHITO CHIBA, SEIKEN TOKURA, NAOAKI KAWAKAMI
     UNIVERSITY OF AARHUS: FRANK JENSEN
     UNIVERSITY OF IOWA: VISVALDAS KAIRYS, HUI LI
     NATIONAL INST. OF STANDARDS AND TECHNOLOGY: WALT STEVENS, DAVID GARMER
     UNIVERSITY OF PISA: BENEDETTA MENNUCCI, JACOPO TOMASI
     UNIVERSITY OF MEMPHIS: HENRY KURTZ, PRAKASHAN KORAMBATH
     UNIVERSITY OF ALBERTA: TOBY ZENG, MARIUSZ KLOBUKOWSKI
     UNIVERSITY OF NEW ENGLAND: MARK SPACKMAN
     MIE UNIVERSITY: HIROAKI UMEDA
     NAT. INST. OF ADVANCED INDUSTRIAL SCIENCE AND TECHNOLOGY: KAZUO KITAURA
     MICHIGAN STATE UNIVERSITY:
          KAROL KOWALSKI, MARTA WLOCH, JEFFREY GOUR, JESSE LUTZ,
          WEI LI, JUN SHEN, J. EMILIANO DEUSTUA, PIOTR PIECUCH
     UNIVERSITY OF MINNESOTA:
          YINAN SHU
     UNIVERSITY OF SILESIA: MONIKA MUSIAL, STANISLAW KUCHARSKI
     FACULTES UNIVERSITAIRES NOTRE-DAME DE LA PAIX:
          OLIVIER QUINET, BENOIT CHAMPAGNE
     UNIVERSITY OF CALIFORNIA - SANTA BARBARA: BERNARD KIRTMAN
     INSTITUTE FOR MOLECULAR SCIENCE:
          KAZUYA ISHIMURA, MICHIO KATOUDA, AND SHIGERU NAGASE
     UNIVERSITY OF NOTRE DAME: ANNA POMOGAEVA, DAN CHIPMAN
     KYUSHU UNIVERSITY:
          HARUYUKI NAKANO,
          FENG LONG GU, JACEK KORCHOWIEC, MARCIN MAKOWSKI, AND YURIKO AOKI,
          HIROTOSHI MORI AND EISAKU MIYOSHI
     PENNSYLVANIA STATE UNIVERSITY:
          TZVETELIN IORDANOV, CHET SWALINA, JONATHAN SKONE,
          SHARON HAMMES-SCHIFFER
     WASEDA UNIVERSITY:
          MASATO KOBAYASHI, TOMOKO AKAMA, TSUGUKI TOUMA,
          TAKESHI YOSHIKAWA, YASUHIRO IKABATA, JUNJI SEINO,
          YUYA NAKAJIMA, HIROMI NAKAI
     NANJING UNIVERSITY: SHUHUA LI
     UNIVERSITY OF NEBRASKA:
          PEIFENG SU, DEJUN SI, NANDUN THELLAMUREGE, YALI WANG, HUI LI
     UNIVERSITY OF ZURICH: ROBERTO PEVERATI, KIM BALDRIDGE
     N. COPERNICUS UNIVERSITY AND JACKSON STATE UNIVERSITY:
          MARIA BARYSZ
     UNIVERSITY OF COPENHAGEN: Jimmy Kromann, CASPER STEINMANN
     TOKYO INSTITUTE OF TECHNOLOGY: HIROYA NAKATA
     NAGOYA UNIVERSITY: YOSHIO NISHIMOTO, STEPHAN IRLE
     MOSCOW STATE UNIVERSITY: VLADIMIR MIRONOV
     A.N.NESMEYANOV INSTITUTE OF ORGANOELEMENT COMPOUNDS OF RUSSIAN ACADEMY OF SCIENCES:
          IGOR S. GERASIMOV

 EXECUTION OF GAMESS BEGUN Mon Oct  3 02:23:34 2022

            ECHO OF THE FIRST FEW INPUT CARDS -
 INPUT CARD>!                                                                               
 INPUT CARD>!   GAMESS Calculation input file                                               
 INPUT CARD>!                                                                               
 INPUT CARD>!                                                                               
 INPUT CARD> $CONTRL SCFTYP=RHF MAXIT=200 RUNTYP=OPTIMIZE                                   
 INPUT CARD>         COORD=UNIQUE MULT=1                                                    
 INPUT CARD>         ICHARG=0                                                               
 INPUT CARD>         DFTTYP=B3LYP                                                           
 INPUT CARD>         MOLPLT=.FALSE. PLTORB=.FALSE.  $END                                    
 INPUT CARD> $SYSTEM TIMLIM=2879 MWORDS=250  $END                                           
 INPUT CARD>                                                                                
 INPUT CARD> $FORCE METHOD=SEMINUM NVIB=2 $END                                              
 INPUT CARD> $STATPT OPTTOL=0.0005 NSTEP=999 $END                                           
 INPUT CARD> $STATPT IHREP=0 HSSEND=.TRUE.  $END                                            
 INPUT CARD>                                                                                
 INPUT CARD> $DFT    METHOD=GRID  NLEB=590  $END                                            
 INPUT CARD>                                                                                
 INPUT CARD> $BASIS  GBASIS=N31 NGAUSS=6                                                    
 INPUT CARD>         NDFUNC=1   NPFUNC=0  $END                                              
 INPUT CARD>                                                                                
 INPUT CARD> $SCF    DIRSCF=.T. $END                                                        
 INPUT CARD> $GUESS  GUESS=HUCKEL  $END                                                     
 INPUT CARD>                                                                                
 INPUT CARD> $DATA                                                                          
 INPUT CARD>                                                                                
 INPUT CARD>  C1                                                                            
 INPUT CARD>C     6.0    -2.01714    -0.46751     0.14879                                   
 INPUT CARD>C     6.0    -0.87998     0.49528     0.01540                                   
 INPUT CARD>C     6.0     0.42027     0.15319    -0.04216                                   
 INPUT CARD>C     6.0     1.51443     1.18126    -0.13173                                   
 INPUT CARD>C     6.0     0.92152    -1.26592    -0.00051                                   
 INPUT CARD>H     1.0    -2.03594    -0.90465     1.15499                                   
 INPUT CARD>H     1.0    -1.96002    -1.26655    -0.59441                                   
 INPUT CARD>H     1.0    -2.96543     0.04892    -0.00647                                   
 INPUT CARD>H     1.0    -1.15797     1.54715    -0.01490                                   
 INPUT CARD>H     1.0     2.11450     1.03178    -1.03157                                   
 INPUT CARD>H     1.0     2.17830     1.10442     0.73772                                   
 INPUT CARD>H     1.0     1.12666     2.20610    -0.15559                                   
 INPUT CARD>H     1.0     1.54038    -1.42190     0.88504                                   
 INPUT CARD>H     1.0     1.52676    -1.48168    -0.88382                                   
 INPUT CARD>H     1.0     0.11972    -2.01036     0.03066                                   
 INPUT CARD> $END                                                                           
 INPUT CARD>                                                                                
 INPUT CARD>                                                                                
 INPUT CARD>! Customizations after this line are persisted when using Do More Calculations  
  250000000 WORDS OF MEMORY AVAILABLE

     BASIS OPTIONS
     -------------
     GBASIS=N31          IGAUSS=       6      POLAR=POPN31  
     NDFUNC=       1     NFFUNC=       0     DIFFSP=       F
     NPFUNC=       0      DIFFS=       F     BASNAM=        


     RUN TITLE
     ---------
                                                                                 

 THE POINT GROUP OF THE MOLECULE IS C1      
 THE ORDER OF THE PRINCIPAL AXIS IS     0

 ATOM      ATOMIC                      COORDINATES (BOHR)
           CHARGE         X                   Y                   Z
 C           6.0    -3.8118418789       -0.8834657965        0.2811723297
 C           6.0    -1.6629210747        0.9359434872        0.0291017802
 C           6.0     0.7941951409        0.2894871241       -0.0796708476
 C           6.0     2.8618577276        2.2322577203       -0.2489336044
 C           6.0     1.7414202922       -2.3922419224       -0.0009637603
 H           1.0    -3.8473687274       -1.7095406148        2.1826146186
 H           1.0    -3.7039007305       -2.3934324497       -1.1232720244
 H           1.0    -5.6038501358        0.0924453953       -0.0122265271
 H           1.0    -2.1882460020        2.9236895619       -0.0281569172
 H           1.0     3.9958256010        1.9497814796       -1.9493846372
 H           1.0     4.1163901191        2.0870511754        1.3940886557
 H           1.0     2.1290786813        4.1689245015       -0.2940224664
 H           1.0     2.9108961170       -2.6870013819        1.6724830882
 H           1.0     2.8851580490       -2.7999692015       -1.6701776225
 H           1.0     0.2262379953       -3.7990295367        0.0579389988

          INTERNUCLEAR DISTANCES (ANGS.)
          ------------------------------

                1 C          2 C          3 C          4 C          5 C     

   1 C       0.0000000    1.4959580 *  2.5224389 *  3.9075722    3.0488476  
   2 C       1.4959580 *  0.0000000    1.3457298 *  2.4950782 *  2.5194207 *
   3 C       2.5224389 *  1.3457298 *  0.0000000    1.5040402 *  1.5056093 *
   4 C       3.9075722    2.4950782 *  1.5040402 *  0.0000000    2.5213986 *
   5 C       3.0488476    2.5194207 *  1.5056093 *  2.5213986 *  0.0000000  
   6 H       1.0972161 *  2.1435281 *  2.9300446 *  4.3141391    3.1956636  
   7 H       1.0927369 *  2.1546228 *  2.8260259 *  4.2752368    2.9421065 *
   8 H       1.0908985 *  2.1327956 *  3.3874932    4.6224484    4.1033182  
   9 H       2.1963202 *  1.0884057 *  2.1058749 *  2.6998605 *  3.4982636  
  10 H       4.5509965    3.2172797    2.1497134 *  1.0918518 *  2.7867026 *
  11 H       4.5187962    3.2009177    2.1456283 *  1.0966180 *  2.7826231 *
  12 H       4.1381537    2.6424887 *  2.1740038 *  1.0960073 *  3.4815306  
  13 H       3.7561780    3.2078023    2.1436545 *  2.7948053 *  1.0915660 *
  14 H       3.8280611    3.2418151    2.1460456 *  2.7671359 *  1.0922932 *
  15 H       2.6382781 *  2.6977518 *  2.1855392 *  3.4868359    1.0945527 *

                6 H          7 H          8 H          9 H         10 H     

   1 C       1.0972161 *  1.0927369 *  1.0908985 *  2.1963202 *  4.5509965  
   2 C       2.1435281 *  2.1546228 *  2.1327956 *  1.0884057 *  3.2172797  
   3 C       2.9300446 *  2.8260259 *  3.3874932    2.1058749 *  2.1497134 *
   4 C       4.3141391    4.2752368    4.6224484    2.6998605 *  1.0918518 *
   5 C       3.1956636    2.9421065 *  4.1033182    3.4982636    2.7867026 *
   6 H       0.0000000    1.7880536 *  1.7669852 *  2.8549601 *  5.0751313  
   7 H       1.7880536 *  0.0000000    1.7569815 *  2.9826203 *  4.6984192  
   8 H       1.7669852 *  1.7569815 *  0.0000000    2.3476959 *  5.2747069  
   9 H       2.8549601 *  2.9826203 *  2.3476959 *  0.0000000    3.4652971  
  10 H       5.0751313    4.6984192    5.2747069    3.4652971    0.0000000  
  11 H       4.6872482    4.9519452    5.3033817    3.4486438    1.7719295 *
  12 H       4.6256269    4.6668463    4.6282678    2.3819200 *  1.7669738 *
  13 H       3.6236012    3.8033809    4.8229063    4.1117202    3.1659996  
  14 H       4.1451829    3.5053778    4.8262046    4.1396387    2.5854883 *
  15 H       2.6708767 *  2.2954922 *  3.7094694    3.7802705    3.7897356  

               11 H         12 H         13 H         14 H         15 H     

   1 C       4.5187962    4.1381537    3.7561780    3.8280611    2.6382781 *
   2 C       3.2009177    2.6424887 *  3.2078023    3.2418151    2.6977518 *
   3 C       2.1456283 *  2.1740038 *  2.1436545 *  2.1460456 *  2.1855392 *
   4 C       1.0966180 *  1.0960073 *  2.7948053 *  2.7671359 *  3.4868359  
   5 C       2.7826231 *  3.4815306    1.0915660 *  1.0922932 *  1.0945527 *
   6 H       4.6872482    4.6256269    3.6236012    4.1451829    2.6708767 *
   7 H       4.9519452    4.6668463    3.8033809    3.5053778    2.2954922 *
   8 H       5.3033817    4.6282678    4.8229063    4.8262046    3.7094694  
   9 H       3.4486438    2.3819200 *  4.1117202    4.1396387    3.7802705  
  10 H       1.7719295 *  1.7669738 *  3.1659996    2.5854883 *  3.7897356  
  11 H       0.0000000    1.7656863 *  2.6097774 *  3.1211872    3.7999395  
  12 H       1.7656863 *  0.0000000    3.7969012    3.7802275    4.3390266  
  13 H       2.6097774 *  3.7969012    0.0000000    1.7699223 *  1.7591263 *
  14 H       3.1211872    3.7802275    1.7699223 *  0.0000000    1.7594140 *
  15 H       3.7999395    4.3390266    1.7591263 *  1.7594140 *  0.0000000  

  * ... LESS THAN  3.000


     ATOMIC BASIS SET
     ----------------
 THE CONTRACTED PRIMITIVE FUNCTIONS HAVE BEEN UNNORMALIZED
 THE CONTRACTED BASIS FUNCTIONS ARE NOW NORMALIZED TO UNITY

  SHELL TYPE  PRIMITIVE        EXPONENT          CONTRACTION COEFFICIENT(S)

 C         

      1   S       1          3047.5248800    0.001834737132
      1   S       2           457.3695180    0.014037322813
      1   S       3           103.9486850    0.068842622264
      1   S       4            29.2101553    0.232184443216
      1   S       5             9.2866630    0.467941348435
      1   S       6             3.1639270    0.362311985337

      2   L       7             7.8682723   -0.119332419775    0.068999066591
      2   L       8             1.8812885   -0.160854151696    0.316423960957
      2   L       9             0.5442493    1.143456437840    0.744308290898

      3   L      10             0.1687145    1.000000000000    1.000000000000

      4   D      11             0.8000000    1.000000000000

 C         

      5   S      12          3047.5248800    0.001834737132
      5   S      13           457.3695180    0.014037322813
      5   S      14           103.9486850    0.068842622264
      5   S      15            29.2101553    0.232184443216
      5   S      16             9.2866630    0.467941348435
      5   S      17             3.1639270    0.362311985337

      6   L      18             7.8682723   -0.119332419775    0.068999066591
      6   L      19             1.8812885   -0.160854151696    0.316423960957
      6   L      20             0.5442493    1.143456437840    0.744308290898

      7   L      21             0.1687145    1.000000000000    1.000000000000

      8   D      22             0.8000000    1.000000000000

 C         

      9   S      23          3047.5248800    0.001834737132
      9   S      24           457.3695180    0.014037322813
      9   S      25           103.9486850    0.068842622264
      9   S      26            29.2101553    0.232184443216
      9   S      27             9.2866630    0.467941348435
      9   S      28             3.1639270    0.362311985337

     10   L      29             7.8682723   -0.119332419775    0.068999066591
     10   L      30             1.8812885   -0.160854151696    0.316423960957
     10   L      31             0.5442493    1.143456437840    0.744308290898

     11   L      32             0.1687145    1.000000000000    1.000000000000

     12   D      33             0.8000000    1.000000000000

 C         

     13   S      34          3047.5248800    0.001834737132
     13   S      35           457.3695180    0.014037322813
     13   S      36           103.9486850    0.068842622264
     13   S      37            29.2101553    0.232184443216
     13   S      38             9.2866630    0.467941348435
     13   S      39             3.1639270    0.362311985337

     14   L      40             7.8682723   -0.119332419775    0.068999066591
     14   L      41             1.8812885   -0.160854151696    0.316423960957
     14   L      42             0.5442493    1.143456437840    0.744308290898

     15   L      43             0.1687145    1.000000000000    1.000000000000

     16   D      44             0.8000000    1.000000000000

 C         

     17   S      45          3047.5248800    0.001834737132
     17   S      46           457.3695180    0.014037322813
     17   S      47           103.9486850    0.068842622264
     17   S      48            29.2101553    0.232184443216
     17   S      49             9.2866630    0.467941348435
     17   S      50             3.1639270    0.362311985337

     18   L      51             7.8682723   -0.119332419775    0.068999066591
     18   L      52             1.8812885   -0.160854151696    0.316423960957
     18   L      53             0.5442493    1.143456437840    0.744308290898

     19   L      54             0.1687145    1.000000000000    1.000000000000

     20   D      55             0.8000000    1.000000000000

 H         

     21   S      56            18.7311370    0.033494604338
     21   S      57             2.8253944    0.234726953484
     21   S      58             0.6401217    0.813757326146

     22   S      59             0.1612778    1.000000000000

 H         

     23   S      60            18.7311370    0.033494604338
     23   S      61             2.8253944    0.234726953484
     23   S      62             0.6401217    0.813757326146

     24   S      63             0.1612778    1.000000000000

 H         

     25   S      64            18.7311370    0.033494604338
     25   S      65             2.8253944    0.234726953484
     25   S      66             0.6401217    0.813757326146

     26   S      67             0.1612778    1.000000000000

 H         

     27   S      68            18.7311370    0.033494604338
     27   S      69             2.8253944    0.234726953484
     27   S      70             0.6401217    0.813757326146

     28   S      71             0.1612778    1.000000000000

 H         

     29   S      72            18.7311370    0.033494604338
     29   S      73             2.8253944    0.234726953484
     29   S      74             0.6401217    0.813757326146

     30   S      75             0.1612778    1.000000000000

 H         

     31   S      76            18.7311370    0.033494604338
     31   S      77             2.8253944    0.234726953484
     31   S      78             0.6401217    0.813757326146

     32   S      79             0.1612778    1.000000000000

 H         

     33   S      80            18.7311370    0.033494604338
     33   S      81             2.8253944    0.234726953484
     33   S      82             0.6401217    0.813757326146

     34   S      83             0.1612778    1.000000000000

 H         

     35   S      84            18.7311370    0.033494604338
     35   S      85             2.8253944    0.234726953484
     35   S      86             0.6401217    0.813757326146

     36   S      87             0.1612778    1.000000000000

 H         

     37   S      88            18.7311370    0.033494604338
     37   S      89             2.8253944    0.234726953484
     37   S      90             0.6401217    0.813757326146

     38   S      91             0.1612778    1.000000000000

 H         

     39   S      92            18.7311370    0.033494604338
     39   S      93             2.8253944    0.234726953484
     39   S      94             0.6401217    0.813757326146

     40   S      95             0.1612778    1.000000000000

 TOTAL NUMBER OF BASIS SET SHELLS             =   40
 NUMBER OF CARTESIAN GAUSSIAN BASIS FUNCTIONS =   95
 NUMBER OF ELECTRONS                          =   40
 CHARGE OF MOLECULE                           =    0
 SPIN MULTIPLICITY                            =    1
 NUMBER OF OCCUPIED ORBITALS (ALPHA)          =   20
 NUMBER OF OCCUPIED ORBITALS (BETA )          =   20
 TOTAL NUMBER OF ATOMS                        =   15
 THE NUCLEAR REPULSION ENERGY IS      174.8733581069

 SELECTED MURRAY-HANDY-LAMING RADIAL GRID

 LEGACY BECKE'S FUZZY CELL METHOD

 SELECTED ORIGINAL BECKE'S PARTITION FUNCTION

     LEBEDEV GRID-BASED DFT OPTIONS
     ------------------------------
     DFTTYP=B3LYP   
     NRAD  =      96     NLEB  =     590
     NRAD0 =      24     NLEB0 =     110
     SWOFF =    5.00E-03 (PURE SCF -> DFT)
     SWITCH=    3.00E-04 (COARSE -> TIGHT GRID)
     THRESH=    0.00E+00 GTHRE=    1.00E+00

 GRIMME'S EMPIRICAL DISPERSION CORRECTION= F

     $CONTRL OPTIONS
     ---------------
 SCFTYP=RHF          RUNTYP=OPTIMIZE     EXETYP=RUN     
 MPLEVL=       0     CITYP =NONE         CCTYP =NONE         VBTYP =NONE    
 DFTTYP=B3LYP        TDDFT =NONE    
 MULT  =       1     ICHARG=       0     NZVAR =       0     COORD =UNIQUE  
 PP    =NONE         RELWFN=NONE         LOCAL =NONE         NUMGRD=       F
 ISPHER=      -1     NOSYM =       0     MAXIT =     200     UNITS =ANGS    
 PLTORB=       F     MOLPLT=       F     AIMPAC=       F     FRIEND=        
 NPRINT=       7     IREST =       0     GEOM  =INPUT   
 NORMF =       0     NORMP =       0     ITOL  =      20     ICUT  =       9
 INTTYP=BEST         GRDTYP=BEST         QMTTOL= 1.0E-06

     $SYSTEM OPTIONS
     ---------------
  REPLICATED MEMORY=   250000000 WORDS (ON EVERY NODE).
 DISTRIBUTED MEMDDI=           0 MILLION WORDS IN AGGREGATE,
 MEMDDI DISTRIBUTED OVER   1 PROCESSORS IS           0 WORDS/PROCESSOR.
 TOTAL MEMORY REQUESTED ON EACH PROCESSOR=   250000000 WORDS.
 TIMLIM=        2879.00 MINUTES, OR       2.0 DAYS.
 PARALL= F  BALTYP=  DLB     KDIAG=    0  COREFL= F
 MXSEQ2=     300 MXSEQ3=     150  mem10=         0

          ----------------
          PROPERTIES INPUT
          ----------------

     MOMENTS            FIELD           POTENTIAL          DENSITY
 IEMOM =       1   IEFLD =       0   IEPOT =       0   IEDEN =       0
 WHERE =COMASS     WHERE =NUCLEI     WHERE =NUCLEI     WHERE =NUCLEI  
 OUTPUT=BOTH       OUTPUT=BOTH       OUTPUT=BOTH       OUTPUT=BOTH    
 IEMINT=       0   IEFINT=       0                     IEDINT=       0
                                                       MORB  =       0
          EXTRAPOLATION IN EFFECT
          DIIS IN EFFECT
 ORBITAL PRINTING OPTION: NPREO=     1    95     2     1

     -------------------------------
     INTEGRAL TRANSFORMATION OPTIONS
     -------------------------------
     NWORD  =            0
     CUTOFF = 1.0E-09     MPTRAN =       0
     DIRTRF =       T     AOINTS =DUP     

          ----------------------
          INTEGRAL INPUT OPTIONS
          ----------------------
 NOPK  =       1 NORDER=       0 SCHWRZ=       T

     ------------------------------------------
     THE POINT GROUP IS C1 , NAXIS= 0, ORDER= 1
     ------------------------------------------

     DIMENSIONS OF THE SYMMETRY SUBSPACES ARE
 A   =   95

 ..... DONE SETTING UP THE RUN .....
 STEP CPU TIME =     0.01 TOTAL CPU TIME =          0.0 (      0.0 MIN)
 TOTAL WALL CLOCK TIME=          0.0 SECONDS, CPU UTILIZATION IS    50.00%


          -----------------------------
          STATIONARY POINT LOCATION RUN
          -----------------------------

 OBTAINING INITIAL HESSIAN, HESS=GUESS   
 CARTESIAN COORDINATE OPTIMIZATION USING BADGER'S RULE FORCE CONSTANT GUESS

          PARAMETERS CONTROLLING GEOMETRY SEARCH ARE
          METHOD =QA                  UPHESS =BFGS    
          NNEG   =         0          NFRZ   =         0
          NSTEP  =       999          IFOLOW =         1
          HESS   =GUESS               RESTAR =         F
          IHREP  =         0          HSSEND =         T
          NPRT   =         0          NPUN   =         0
          OPTTOL = 5.000E-04          RMIN   = 1.500E-03
          RMAX   = 1.000E-01          RLIM   = 7.000E-02
          DXMAX  = 3.000E-01          PURIFY =         F
          MOVIE  =         F          TRUPD  =         T
          TRMAX  = 5.000E-01          TRMIN  = 5.000E-02
          ITBMAT =         5          STPT   =         F
          STSTEP = 1.000E-02          PROJCT=          T

 BEGINNING GEOMETRY SEARCH POINT NSERCH=   0 ...

 COORDINATES OF ALL ATOMS ARE (ANGS)
   ATOM   CHARGE       X              Y              Z
 ------------------------------------------------------------
 C           6.0  -2.0171400000  -0.4675100000   0.1487900000
 C           6.0  -0.8799800000   0.4952800000   0.0154000000
 C           6.0   0.4202700000   0.1531900000  -0.0421600000
 C           6.0   1.5144300000   1.1812600000  -0.1317300000
 C           6.0   0.9215200000  -1.2659200000  -0.0005100000
 H           1.0  -2.0359400000  -0.9046500000   1.1549900000
 H           1.0  -1.9600200000  -1.2665500000  -0.5944100000
 H           1.0  -2.9654300000   0.0489200000  -0.0064700000
 H           1.0  -1.1579700000   1.5471500000  -0.0149000000
 H           1.0   2.1145000000   1.0317800000  -1.0315700000
 H           1.0   2.1783000000   1.1044200000   0.7377200000
 H           1.0   1.1266600000   2.2061000000  -0.1555900000
 H           1.0   1.5403800000  -1.4219000000   0.8850400000
 H           1.0   1.5267600000  -1.4816800000  -0.8838200000
 H           1.0   0.1197200000  -2.0103600000   0.0306600000

          ********************
          1 ELECTRON INTEGRALS
          ********************
 ...... END OF ONE-ELECTRON INTEGRALS ......
 STEP CPU TIME =     0.00 TOTAL CPU TIME =          0.0 (      0.0 MIN)
 TOTAL WALL CLOCK TIME=          0.0 SECONDS, CPU UTILIZATION IS    25.00%

          -------------
          GUESS OPTIONS
          -------------
          GUESS =HUCKEL            NORB  =       0          NORDER=       0
          MIX   =       F          PRTMO =       F          PUNMO =       F
          TOLZ  = 1.0E-08          TOLE  = 1.0E-05
          SYMDEN=       F          PURIFY=       F

 INITIAL GUESS ORBITALS GENERATED BY HUCKEL   ROUTINE.
 HUCKEL GUESS REQUIRES     81420 WORDS.

 SYMMETRIES FOR INITIAL GUESS ORBITALS FOLLOW.   BOTH SET(S).
    20 ORBITALS ARE OCCUPIED (    5 CORE ORBITALS).
     6=A        7=A        8=A        9=A       10=A       11=A       12=A   
    13=A       14=A       15=A       16=A       17=A       18=A       19=A   
    20=A       21=A       22=A       23=A       24=A       25=A       26=A   
    27=A       28=A       29=A       30=A   
 ...... END OF INITIAL ORBITAL SELECTION ......
 STEP CPU TIME =     0.02 TOTAL CPU TIME =          0.0 (      0.0 MIN)
 TOTAL WALL CLOCK TIME=          0.1 SECONDS, CPU UTILIZATION IS    50.00%

                    ----------------------
                    AO INTEGRAL TECHNOLOGY
                    ----------------------
     S,P,L SHELL ROTATED AXIS INTEGRALS, REPROGRAMMED BY
        KAZUYA ISHIMURA (IMS) AND JOSE SIERRA (SYNSTAR).
     S,P,D,L SHELL ROTATED AXIS INTEGRALS PROGRAMMED BY
        KAZUYA ISHIMURA (INSTITUTE FOR MOLECULAR SCIENCE).
     S,P,D,F,G SHELL TO TOTAL QUARTET ANGULAR MOMENTUM SUM 5,
        ERIC PROGRAM BY GRAHAM FLETCHER (ELORET AND NASA ADVANCED
        SUPERCOMPUTING DIVISION, AMES RESEARCH CENTER).
     S,P,D,F,G,L SHELL GENERAL RYS QUADRATURE PROGRAMMED BY
        MICHEL DUPUIS (PACIFIC NORTHWEST NATIONAL LABORATORY).

          --------------------
          2 ELECTRON INTEGRALS
          --------------------

 DIRECT SCF METHOD SKIPS INTEGRAL STORAGE ON DISK.
 DIRECT TRANSFORMATION SKIPS AO INTEGRAL STORAGE ON DISK.
  ...... END OF TWO-ELECTRON INTEGRALS .....
 STEP CPU TIME =     0.01 TOTAL CPU TIME =          0.0 (      0.0 MIN)
 TOTAL WALL CLOCK TIME=          0.1 SECONDS, CPU UTILIZATION IS    66.67%

          --------------------------
             R-B3LYP SCF CALCULATION
          --------------------------

     NUCLEAR ENERGY =       174.8733581069
     MAXIT =  200     NPUNCH=    2
     EXTRAP=T  DAMP=F  SHIFT=F  RSTRCT=F  DIIS=T  DEM=F  SOSCF=F
         DENSITY MATRIX CONVERGENCE THRESHOLD=  2.00E-05
     COARSE -> FINE DFT GRID SWITCH THRESHOLD=  3.00E-04 (SWITCH IN $DFT)
                   HF -> DFT SWITCH THRESHOLD=  5.00E-03 (SWOFF IN $DFT)
     MEMORY REQUIRED FOR RHF ITERS=   1069224 WORDS.

 DIRECT SCF CALCULATION, SCHWRZ=T   FDIFF=T,  DIRTHR=  0.00E+00 NITDIR=10
 SCHWARZ INEQUALITY OVERHEAD:      4555 INTEGRALS, T=        0.00

 DFT CODE IS SWITCHING FROM THE FINE GRID NRAD= 96,  NLEB=  590
                      TO THE COARSE GRID NRAD0= 24, NLEB0=  110

     EXCHANGE FUNCTIONAL   =B88&HFX   
     CORRELATION FUNCTIONAL=LYP88&VWN5
     DFT THRESHOLD         =.471E-08
     GRID CHANGE THRESHOLD =.300E-03
 FOR AN EULER-MACLAURIN QUADRATURE USING  96 RADIAL POINTS:
 SMALLEST GAUSSIAN PRIMITIVE EXPONENT=        0.1612777588 OF TYPE -S-
 ON ATOM NUMBER   6 HAS RADIAL NORMALIZATION=  1.000000
  LARGEST GAUSSIAN PRIMITIVE EXPONENT=     3047.5248800000 OF TYPE -S-
 ON ATOM NUMBER   1 HAS RADIAL NORMALIZATION=  1.000000
 DFT IS SWITCHED OFF, PERFORMING PURE SCF UNTIL SWOFF THRESHOLD IS REACHED.

                                                                                   NONZERO     BLOCKS
 ITER EX DEM     TOTAL ENERGY        E CHANGE  DENSITY CHANGE    DIIS ERROR      INTEGRALS    SKIPPED
          * * *   INITIATING DIIS PROCEDURE   * * *
   1  0  0     -194.6903496074  -194.6903496074   0.144856777   0.402204961        9443035      53504
   2  1  0     -195.1162240223    -0.4258744150   0.079536176   0.066191699        9432245      57780
   3  2  0     -195.1382146629    -0.0219906405   0.019980094   0.025418668        9373540      64065
   4  3  0     -195.1424764461    -0.0042617832   0.009412307   0.004767902        9268362      73708
   5  4  0     -195.1427734353    -0.0002969892   0.003754880   0.002078839        9176554      79309
 CONVERGED TO SWOFF, SO DFT CALCULATION IS NOW SWITCHED ON.
          * * *   INITIATING DIIS PROCEDURE   * * *
   6  5  0     -196.3712837658    -1.2285103304   0.095325408   0.104915183        9445620      53491
   7  6  0     -196.3902997296    -0.0190159638   0.033811628   0.028231643        9401558      62333
   8  7  0     -196.3906175040    -0.0003177744   0.015649704   0.026278956        9314865      68072
   9  8  0     -196.3936957353    -0.0030782314   0.004046480   0.002447119        9257276      72816
  10  9  0     -196.3937239530    -0.0000282177   0.001214693   0.001040720        8942519      92419
  11 10  0     -196.3937288214    -0.0000048683   0.000132999   0.000107982        8751572     101593
 DFT CODE IS SWITCHING BACK TO THE FINE GRID
          * * *   INITIATING DIIS PROCEDURE   * * *
  12 11  0     -196.3951675785    -0.0014387572   0.002288911   0.000872732        9447332      52876
  13 12  0     -196.3951793682    -0.0000117896   0.000423460   0.000311383        9061116      86290
  14 13  0     -196.3951794286    -0.0000000604   0.000225855   0.000312419        8669677     105886
  15 14  0     -196.3951798116    -0.0000003831   0.000078115   0.000034527        8436839     115491
  16 15  0     -196.3951798150    -0.0000000034   0.000037787   0.000030279        8065539     133155
  17 16  0     -196.3951798194    -0.0000000044   0.000004099   0.000002694        7757609     147663

          -----------------
          DENSITY CONVERGED
          -----------------
     TIME TO FORM FOCK OPERATORS=      21.7 SECONDS (       1.3 SEC/ITER)
     FOCK TIME ON FIRST ITERATION=       0.4, LAST ITERATION=       2.8
     TIME TO SOLVE SCF EQUATIONS=       0.1 SECONDS (       0.0 SEC/ITER)

 FINAL R-B3LYP ENERGY IS     -196.3951798194 AFTER  17 ITERATIONS
 DFT EXCHANGE + CORRELATION ENERGY =       -24.8303711603
 TOTAL ELECTRON NUMBER             =        39.9999676035

          ------------
          EIGENVECTORS
          ------------

                      1          2          3          4          5
                  -10.1775   -10.1698   -10.1684   -10.1678   -10.1659
                     A          A          A          A          A   
    1  C  1  S    0.000335  -0.001264  -0.002038   0.990344  -0.071243
    2  C  1  S   -0.000003  -0.000146  -0.000226   0.050010  -0.003775
    3  C  1  X   -0.000072  -0.000030  -0.000021   0.000045  -0.000154
    4  C  1  Y   -0.000039   0.000015   0.000009   0.000011  -0.000236
    5  C  1  Z   -0.000001   0.000008  -0.000001   0.000011   0.000060
    6  C  1  S   -0.000609   0.001167   0.000649  -0.017394   0.005186
    7  C  1  X   -0.000158   0.000292   0.000315  -0.000845   0.001667
    8  C  1  Y    0.000126   0.000289   0.000057  -0.000801   0.001377
    9  C  1  Z    0.000053  -0.000111  -0.000009   0.000041  -0.000403
   10  C  1 XX    0.000033  -0.000052   0.000010  -0.009179   0.000396
   11  C  1 YY    0.000049  -0.000023  -0.000015  -0.009183   0.000306
   12  C  1 ZZ   -0.000021  -0.000040  -0.000030  -0.009110   0.000626
   13  C  1 XY   -0.000005   0.000027   0.000022  -0.000071  -0.000208
   14  C  1 XZ   -0.000002  -0.000001  -0.000008   0.000011   0.000028
   15  C  1 YZ   -0.000011   0.000003   0.000001   0.000018   0.000046
   16  C  2  S    0.034051  -0.002323  -0.003441   0.070946   0.989662
   17  C  2  S    0.001077  -0.000223  -0.000295   0.003336   0.049301
   18  C  2  X   -0.000352  -0.000052  -0.000070   0.000149  -0.000131
   19  C  2  Y    0.000133   0.000091  -0.000070   0.000135  -0.000169
   20  C  2  Z    0.000016  -0.000003   0.000004  -0.000014   0.000031
   21  C  2  S    0.005598  -0.000100  -0.000211   0.002702  -0.016261
   22  C  2  X    0.002387   0.000971   0.000253  -0.002707  -0.000322
   23  C  2  Y   -0.001018   0.000789  -0.000144  -0.001309   0.002240
   24  C  2  Z   -0.000090  -0.000074  -0.000010   0.000267  -0.000103
   25  C  2 XX   -0.000640   0.000111   0.000049  -0.000996  -0.008998
   26  C  2 YY   -0.000556  -0.000004   0.000057  -0.000868  -0.009280
   27  C  2 ZZ   -0.000484  -0.000056  -0.000060  -0.000822  -0.009492
   28  C  2 XY    0.000017   0.000026  -0.000080  -0.000161  -0.000043
   29  C  2 XZ    0.000013  -0.000013  -0.000002   0.000023  -0.000039
   30  C  2 YZ    0.000002  -0.000007   0.000002   0.000016  -0.000014
   31  C  3  S    0.992029  -0.016193  -0.013935  -0.002856  -0.034513
   32  C  3  S    0.049281  -0.000910  -0.000834  -0.000210  -0.002273
   33  C  3  X    0.000163  -0.000002  -0.000126   0.000122   0.000409
   34  C  3  Y   -0.000058   0.000265  -0.000195   0.000062  -0.000046
   35  C  3  Z    0.000002  -0.000008   0.000015  -0.000007  -0.000019
   36  C  3  S   -0.016448   0.003358   0.003815   0.000074   0.005902
   37  C  3  X    0.001045   0.000215   0.001606  -0.001600  -0.003062
   38  C  3  Y   -0.000093  -0.003902   0.002756   0.000273  -0.000720
   39  C  3  Z   -0.000091   0.000150  -0.000193   0.000017   0.000203
   40  C  3 XX   -0.008908  -0.000041  -0.000150   0.000080  -0.000013
   41  C  3 YY   -0.009196  -0.000229  -0.000148   0.000018   0.000033
   42  C  3 ZZ   -0.009348   0.000041   0.000008  -0.000020   0.000173
   43  C  3 XY   -0.000109   0.000091  -0.000136  -0.000071   0.000050
   44  C  3 XZ   -0.000022   0.000001   0.000013  -0.000009   0.000007
   45  C  3 YZ   -0.000003   0.000008   0.000015   0.000005   0.000004
   46  C  4  S    0.013768  -0.004846   0.992802   0.002173   0.002766
   47  C  4  S    0.000585  -0.000651   0.050201  -0.000054  -0.000018
   48  C  4  X    0.000249  -0.000090   0.000058   0.000006  -0.000017
   49  C  4  Y    0.000138   0.000111  -0.000082  -0.000020  -0.000020
   50  C  4  Z   -0.000015   0.000000   0.000005   0.000002  -0.000002
   51  C  4  S    0.002752   0.002386  -0.017931   0.001090   0.000836
   52  C  4  X   -0.001541  -0.000304   0.000866  -0.000369  -0.000131
   53  C  4  Y   -0.000623  -0.000849   0.000929  -0.000502  -0.000314
   54  C  4  Z    0.000096   0.000043  -0.000098   0.000042   0.000027
   55  C  4 XX   -0.000410   0.000016  -0.009217  -0.000036   0.000029
   56  C  4 YY   -0.000453  -0.000016  -0.009140  -0.000021   0.000006
   57  C  4 ZZ   -0.000161  -0.000093  -0.009113  -0.000081  -0.000069
   58  C  4 XY   -0.000233   0.000041  -0.000055   0.000039   0.000041
   59  C  4 XZ    0.000021  -0.000007   0.000000  -0.000006  -0.000006
   60  C  4 YZ    0.000021  -0.000008   0.000005  -0.000006  -0.000004
   61  C  5  S    0.016132   0.992774   0.004458   0.001338   0.001666
   62  C  5  S    0.000706   0.050258  -0.000165  -0.000027   0.000012
   63  C  5  X    0.000154   0.000092  -0.000117   0.000079   0.000043
   64  C  5  Y   -0.000240   0.000035  -0.000081  -0.000010  -0.000038
   65  C  5  Z    0.000011   0.000004   0.000006  -0.000035   0.000003
   66  C  5  S    0.002837  -0.018414   0.001873   0.000780  -0.000683
   67  C  5  X   -0.001121   0.000395   0.000230  -0.000055   0.000381
   68  C  5  Y    0.001351  -0.001320   0.000788   0.000470  -0.000263
   69  C  5  Z   -0.000036   0.000011  -0.000025   0.000152  -0.000019
   70  C  5 XX   -0.000272  -0.009160  -0.000109  -0.000082  -0.000001
   71  C  5 YY   -0.000641  -0.009193  -0.000072  -0.000020   0.000038
   72  C  5 ZZ   -0.000183  -0.009112  -0.000180  -0.000104  -0.000061
   73  C  5 XY    0.000112   0.000074  -0.000025   0.000017   0.000011
   74  C  5 XZ    0.000001  -0.000001  -0.000005   0.000005  -0.000006
   75  C  5 YZ    0.000023   0.000002  -0.000006  -0.000005  -0.000006
   76  H  6  S    0.000002  -0.000021  -0.000025  -0.000030  -0.000189
   77  H  6  S    0.000097  -0.000063  -0.000092   0.002758   0.000305
   78  H  7  S    0.000012  -0.000023  -0.000031  -0.000035  -0.000178
   79  H  7  S    0.000167  -0.000230  -0.000089   0.002669   0.000011
   80  H  8  S    0.000009  -0.000046  -0.000019  -0.000031  -0.000094
   81  H  8  S    0.000146  -0.000020   0.000078   0.002678  -0.000317
   82  H  9  S   -0.000073  -0.000031  -0.000013  -0.000142  -0.000342
   83  H  9  S    0.000137  -0.000065  -0.000001   0.000022   0.001718
   84  H 10  S   -0.000136  -0.000114  -0.000022  -0.000032  -0.000021
   85  H 10  S    0.000422  -0.000365   0.002811  -0.000032  -0.000018
   86  H 11  S   -0.000139  -0.000119  -0.000009  -0.000034  -0.000023
   87  H 11  S    0.000432  -0.000336   0.002802  -0.000029  -0.000033
   88  H 12  S   -0.000101  -0.000034  -0.000022  -0.000065  -0.000009
   89  H 12  S   -0.000350   0.000200   0.002642   0.000157  -0.000050
   90  H 13  S   -0.000146   0.000000  -0.000105  -0.000006   0.000026
   91  H 13  S    0.000465   0.002853  -0.000337  -0.000146  -0.000040
   92  H 14  S   -0.000135  -0.000000  -0.000112   0.000019   0.000024
   93  H 14  S    0.000420   0.002816  -0.000316   0.000038  -0.000051
   94  H 15  S   -0.000117  -0.000028  -0.000026  -0.000054   0.000044
   95  H 15  S   -0.000284   0.002737   0.000266   0.000155  -0.000043

                      6          7          8          9         10
                   -0.8006    -0.7250    -0.6820    -0.6242    -0.5038
                     A          A          A          A          A   
    1  C  1  S   -0.064515  -0.146840   0.000949  -0.109437  -0.030315
    2  C  1  S    0.120229   0.281511  -0.002091   0.216276   0.061241
    3  C  1  X    0.035486   0.022702   0.001538  -0.076245  -0.044051
    4  C  1  Y    0.021326   0.027766  -0.012052  -0.048921  -0.149619
    5  C  1  Z   -0.003882  -0.003464  -0.000164   0.006730   0.010256
    6  C  1  S    0.101656   0.248251  -0.006152   0.212779   0.066337
    7  C  1  X    0.010679   0.001852   0.006064  -0.030329  -0.020841
    8  C  1  Y    0.000472  -0.000549  -0.007623  -0.015647  -0.061875
    9  C  1  Z    0.000523   0.000158   0.001388   0.002620   0.003947
   10  C  1 XX    0.002729   0.000422  -0.000044  -0.005985  -0.002583
   11  C  1 YY    0.000317   0.000449  -0.000816  -0.001235  -0.005111
   12  C  1 ZZ   -0.001587  -0.000454   0.000323   0.004414   0.007225
   13  C  1 XY    0.003183   0.000976  -0.001128  -0.009207  -0.006778
   14  C  1 XZ   -0.000561   0.000053  -0.000088   0.001607   0.000142
   15  C  1 YZ   -0.000179   0.000016   0.000331   0.001073   0.002869
   16  C  2  S   -0.111674  -0.091067   0.026050   0.104590   0.077762
   17  C  2  S    0.213276   0.176869  -0.050326  -0.207038  -0.161743
   18  C  2  X    0.053163  -0.085597  -0.013353  -0.154636   0.162244
   19  C  2  Y   -0.032851  -0.043101  -0.036298  -0.042271  -0.167526
   20  C  2  Z   -0.000446   0.008466   0.002112   0.011376  -0.002332
   21  C  2  S    0.151270   0.118458  -0.047157  -0.188814  -0.139572
   22  C  2  X    0.008294  -0.030873  -0.009838  -0.032533   0.056392
   23  C  2  Y    0.002180  -0.001182  -0.010398  -0.022062  -0.069256
   24  C  2  Z   -0.000633   0.002359   0.000486   0.003014  -0.000150
   25  C  2 XX    0.005996   0.000107  -0.001503   0.001510   0.010526
   26  C  2 YY   -0.000477   0.004055   0.000709   0.002608  -0.010073
   27  C  2 ZZ   -0.011732  -0.008975   0.002617   0.009693   0.006377
   28  C  2 XY   -0.001604   0.006421  -0.002182   0.011285   0.001631
   29  C  2 XZ   -0.001155  -0.001168   0.000373  -0.000092  -0.000268
   30  C  2 YZ   -0.000589  -0.001263   0.000242  -0.000392   0.000715
   31  C  3  S   -0.141212   0.040889   0.005748   0.076708  -0.106402
   32  C  3  S    0.273169  -0.080236  -0.012256  -0.155743   0.225842
   33  C  3  X   -0.021607  -0.112726  -0.006655   0.176780   0.047123
   34  C  3  Y    0.001623   0.004753  -0.159577  -0.039340  -0.055956
   35  C  3  Z    0.002287   0.005445   0.006894  -0.007474   0.000279
   36  C  3  S    0.170740  -0.046530   0.000040  -0.120153   0.191524
   37  C  3  X    0.011971  -0.034369  -0.005941   0.020520   0.037117
   38  C  3  Y   -0.005777   0.007034  -0.023754   0.001963  -0.015316
   39  C  3  Z    0.000052   0.001284   0.001601  -0.001216  -0.001255
   40  C  3 XX    0.003549   0.004030  -0.005917  -0.001179  -0.005634
   41  C  3 YY    0.000300  -0.006403   0.006963   0.008788  -0.006865
   42  C  3 ZZ   -0.014409   0.003983   0.000374   0.006467  -0.007774
   43  C  3 XY   -0.000968  -0.002990  -0.010737   0.007907   0.004739
   44  C  3 XZ   -0.001025  -0.000035   0.000797   0.000225  -0.000271
   45  C  3 YZ   -0.000677   0.000656   0.000048  -0.000525  -0.000307
   46  C  4  S   -0.082873   0.088895   0.126078  -0.083171   0.024436
   47  C  4  S    0.155690  -0.170295  -0.243531   0.164092  -0.049025
   48  C  4  X   -0.037752   0.003622   0.003401   0.075092  -0.076235
   49  C  4  Y   -0.036930   0.023328  -0.022724   0.021336  -0.132669
   50  C  4  Z    0.003407  -0.001135   0.000648  -0.004505   0.008948
   51  C  4  S    0.123762  -0.150980  -0.235684   0.166978  -0.057555
   52  C  4  X   -0.006354  -0.001891   0.000080   0.031419  -0.026336
   53  C  4  Y   -0.004341   0.003176  -0.012088   0.001192  -0.042023
   54  C  4  Z    0.000707  -0.000116   0.000079  -0.001475   0.002861
   55  C  4 XX    0.002488   0.001127  -0.000138  -0.006417   0.002052
   56  C  4 YY    0.001919  -0.001017   0.002029  -0.000441   0.001824
   57  C  4 ZZ   -0.002154  -0.000114  -0.000919   0.004693  -0.003325
   58  C  4 XY    0.004225  -0.000355   0.003055  -0.006175   0.010504
   59  C  4 XZ   -0.000470   0.000023  -0.000045   0.000696  -0.000612
   60  C  4 YZ   -0.000392   0.000049  -0.000278   0.000544  -0.000736
   61  C  5  S   -0.087019   0.065231  -0.152344  -0.041885   0.042627
   62  C  5  S    0.163116  -0.125481   0.294424   0.083240  -0.085729
   63  C  5  X   -0.017983  -0.016614  -0.000999   0.040430  -0.072749
   64  C  5  Y    0.050055  -0.022267  -0.023911  -0.037745   0.193451
   65  C  5  Z   -0.001104   0.001701   0.001514  -0.000298  -0.005959
   66  C  5  S    0.130193  -0.108354   0.286106   0.084187  -0.100732
   67  C  5  X   -0.004708  -0.007375   0.000761   0.019549  -0.034114
   68  C  5  Y    0.005983   0.000185  -0.011839  -0.001521   0.074629
   69  C  5  Z   -0.000170  -0.000081   0.000344  -0.000747  -0.001964
   70  C  5 XX   -0.000491   0.001831   0.001187  -0.000326  -0.004172
   71  C  5 YY    0.004906  -0.001450  -0.004502  -0.004114   0.011825
   72  C  5 ZZ   -0.002226  -0.000566   0.001916   0.003105  -0.007598
   73  C  5 XY   -0.002742  -0.000990   0.002335   0.005167  -0.007730
   74  C  5 XZ    0.000023  -0.000040  -0.000040  -0.000165   0.000186
   75  C  5 YZ   -0.000207   0.000109   0.000266   0.000096  -0.000662
   76  H  6  S    0.033345   0.088464   0.001527   0.092422   0.063311
   77  H  6  S    0.003199   0.018050   0.001330   0.034180   0.034824
   78  H  7  S    0.034576   0.088014   0.004481   0.093573   0.078342
   79  H  7  S    0.005326   0.017385   0.004963   0.034605   0.042789
   80  H  8  S    0.031113   0.092405  -0.003184   0.098474   0.008711
   81  H  8  S    0.006914   0.022749   0.002832   0.034333   0.000253
   82  H  9  S    0.051347   0.051865  -0.030359  -0.077875  -0.178306
   83  H  9  S    0.006428   0.009861  -0.013232  -0.021231  -0.109066
   84  H 10  S    0.042820  -0.057747  -0.083597   0.079879  -0.038868
   85  H 10  S    0.006296  -0.013963  -0.021055   0.028919  -0.024785
   86  H 11  S    0.042829  -0.057431  -0.083094   0.078819  -0.037989
   87  H 11  S    0.006141  -0.013923  -0.020866   0.028636  -0.024288
   88  H 12  S    0.041690  -0.048952  -0.094149   0.057722  -0.076458
   89  H 12  S    0.006975  -0.009530  -0.025685   0.020023  -0.055290
   90  H 13  S    0.045376  -0.044599   0.105318   0.043705  -0.077493
   91  H 13  S    0.006817  -0.010368   0.027566   0.018386  -0.043976
   92  H 14  S    0.045142  -0.045037   0.104604   0.044601  -0.077350
   93  H 14  S    0.006632  -0.011151   0.027033   0.018697  -0.043932
   94  H 15  S    0.045310  -0.029062   0.110450   0.032984  -0.074657
   95  H 15  S    0.007088  -0.000685   0.029940   0.023924  -0.038704

                     11         12         13         14         15
                   -0.4516    -0.4284    -0.4214    -0.3993    -0.3795
                     A          A          A          A          A   
    1  C  1  S   -0.006252  -0.000309   0.007522  -0.001405  -0.000395
    2  C  1  S    0.016099   0.000408  -0.011775   0.002421   0.001190
    3  C  1  X   -0.149976   0.017144   0.212656   0.033467   0.020330
    4  C  1  Y    0.131401   0.010590   0.150199   0.011198  -0.008285
    5  C  1  Z    0.012784   0.144492  -0.009433   0.404144   0.037788
    6  C  1  S    0.003095   0.002191  -0.031981   0.006978   0.001067
    7  C  1  X   -0.080944   0.008712   0.092079   0.013454   0.007018
    8  C  1  Y    0.062367   0.001588   0.056265   0.006672  -0.000453
    9  C  1  Z    0.004053   0.060604  -0.003580   0.187023   0.018337
   10  C  1 XX    0.002355  -0.000750   0.003045  -0.003649  -0.001151
   11  C  1 YY    0.002672  -0.002460  -0.000620  -0.007093  -0.000351
   12  C  1 ZZ   -0.003935   0.003087  -0.006520   0.010738   0.001464
   13  C  1 XY   -0.005202   0.001584   0.011013   0.003442   0.001156
   14  C  1 XZ    0.002697   0.002374  -0.001818   0.001481  -0.000389
   15  C  1 YZ   -0.003940  -0.005140  -0.001611  -0.017439  -0.001157
   16  C  2  S    0.007879  -0.000055  -0.036452   0.000466  -0.001502
   17  C  2  S   -0.015460   0.000180   0.081675  -0.002253   0.002897
   18  C  2  X   -0.121838   0.005821  -0.184812   0.019525  -0.003101
   19  C  2  Y    0.178129  -0.004640  -0.162587  -0.001522  -0.002154
   20  C  2  Z    0.002193   0.104651   0.022021   0.102987   0.016489
   21  C  2  S   -0.019973  -0.000635   0.058343   0.010014   0.006494
   22  C  2  X   -0.055013   0.001643  -0.094032   0.016043   0.002547
   23  C  2  Y    0.057505   0.000374  -0.063996  -0.001615  -0.001288
   24  C  2  Z    0.002538   0.051416   0.010086   0.052078   0.010212
   25  C  2 XX    0.002973   0.000162  -0.006361  -0.001020  -0.000634
   26  C  2 YY    0.004079  -0.000721   0.001319  -0.001578   0.000306
   27  C  2 ZZ    0.000486   0.000320  -0.001996   0.002021  -0.000054
   28  C  2 XY   -0.000577   0.000120   0.000237  -0.000164   0.000556
   29  C  2 XZ   -0.000154   0.003374  -0.000260  -0.007689  -0.000038
   30  C  2 YZ   -0.000422  -0.003984  -0.000593  -0.007022   0.000506
   31  C  3  S   -0.027118   0.001117   0.016272   0.000533   0.001701
   32  C  3  S    0.059621  -0.002825  -0.037243  -0.000723  -0.003335
   33  C  3  X    0.237586   0.004213   0.030889  -0.011324   0.003683
   34  C  3  Y    0.033160   0.003790  -0.222205   0.011883   0.005533
   35  C  3  Z   -0.010715   0.177020   0.005724  -0.018448   0.008409
   36  C  3  S    0.072274   0.000213  -0.004017  -0.009074  -0.008983
   37  C  3  X    0.047563   0.002747  -0.018401   0.007123   0.001904
   38  C  3  Y    0.017583   0.002581  -0.044680   0.001980  -0.000179
   39  C  3  Z   -0.001830   0.083461   0.001663  -0.010903   0.003709
   40  C  3 XX   -0.001022   0.000343   0.008908  -0.000583   0.000790
   41  C  3 YY   -0.001376  -0.000257  -0.005747  -0.000009   0.000610
   42  C  3 ZZ   -0.001757   0.000069   0.000953   0.000834  -0.001016
   43  C  3 XY   -0.005925   0.000253   0.000649  -0.000472   0.000575
   44  C  3 XZ    0.000291   0.004678  -0.000935  -0.008093   0.002499
   45  C  3 YZ    0.000239  -0.001917   0.000132   0.000282   0.012812
   46  C  4  S    0.020680  -0.000256  -0.004230   0.000192   0.000167
   47  C  4  S   -0.041401   0.000711   0.008859   0.000021  -0.000692
   48  C  4  X   -0.078717   0.013124   0.268377  -0.017995   0.011456
   49  C  4  Y   -0.209512   0.015543  -0.102548   0.007548   0.009291
   50  C  4  Z    0.013808   0.255411  -0.019314  -0.143934   0.324516
   51  C  4  S   -0.046961  -0.000469   0.003398  -0.004280   0.001918
   52  C  4  X   -0.031522   0.006294   0.135259  -0.008709   0.005095
   53  C  4  Y   -0.102246   0.007566  -0.056927   0.006147   0.003461
   54  C  4  Z    0.005899   0.112278  -0.008676  -0.064984   0.157855
   55  C  4 XX    0.000011   0.000500  -0.003433  -0.000282   0.001110
   56  C  4 YY    0.000298  -0.000393  -0.008273   0.000726  -0.000268
   57  C  4 ZZ   -0.003134   0.000140   0.013750  -0.000397  -0.000887
   58  C  4 XY    0.010069  -0.000118  -0.000802  -0.000644   0.000744
   59  C  4 XZ   -0.000447   0.010667   0.000098  -0.008146   0.018360
   60  C  4 YZ   -0.000668  -0.006773   0.001260   0.002464  -0.002630
   61  C  5  S    0.002430  -0.000221   0.007461  -0.000908   0.000441
   62  C  5  S   -0.003977   0.000559  -0.015498   0.001946  -0.000899
   63  C  5  X    0.180634   0.011122  -0.035819   0.014539   0.002949
   64  C  5  Y    0.150245   0.012669   0.155375  -0.013557  -0.014871
   65  C  5  Z   -0.011572   0.281362  -0.010599  -0.096839  -0.323371
   66  C  5  S    0.002345  -0.000182  -0.002330   0.000230  -0.002450
   67  C  5  X    0.092339   0.005556  -0.015352   0.004699   0.002067
   68  C  5  Y    0.069452   0.005593   0.082833  -0.008312  -0.006710
   69  C  5  Z   -0.005089   0.128505  -0.004986  -0.030471  -0.156143
   70  C  5 XX   -0.008530   0.000086  -0.002418   0.000201  -0.000083
   71  C  5 YY    0.001895  -0.000209   0.003271  -0.000815   0.000161
   72  C  5 ZZ    0.006015   0.000212  -0.004306   0.001159   0.000067
   73  C  5 XY   -0.005068   0.000150  -0.004307  -0.000696  -0.000406
   74  C  5 XZ    0.000171   0.013754  -0.000336  -0.006447  -0.017824
   75  C  5 YZ    0.000066   0.000743  -0.000271   0.000621   0.006560
   76  H  6  S   -0.016612   0.077661  -0.052347   0.233490   0.024260
   77  H  6  S   -0.012077   0.065077  -0.042311   0.191093   0.016143
   78  H  7  S   -0.062815  -0.064329  -0.065306  -0.177220  -0.010117
   79  H  7  S   -0.048785  -0.057139  -0.052969  -0.145287  -0.001848
   80  H  8  S    0.116301  -0.017797  -0.076541  -0.050386  -0.017555
   81  H  8  S    0.077321  -0.012723  -0.055939  -0.043392  -0.017485
   82  H  9  S    0.104479  -0.005333  -0.028419  -0.007239   0.000267
   83  H  9  S    0.078538  -0.005257  -0.033639  -0.006067   0.000025
   84  H 10  S   -0.034884  -0.126128   0.112608   0.070730  -0.171110
   85  H 10  S   -0.021194  -0.103640   0.083639   0.063045  -0.140254
   86  H 11  S   -0.032475   0.129231   0.098472  -0.081759   0.171638
   87  H 11  S   -0.019369   0.106633   0.072780  -0.070701   0.141729
   88  H 12  S   -0.111998   0.002631  -0.111968   0.010159  -0.001930
   89  H 12  S   -0.067959   0.001513  -0.083243   0.007410  -0.001612
   90  H 13  S    0.038786   0.143798  -0.037897  -0.045074  -0.170033
   91  H 13  S    0.024425   0.115805  -0.024237  -0.045800  -0.140002
   92  H 14  S    0.043315  -0.137755  -0.031411   0.060660   0.173783
   93  H 14  S    0.028026  -0.111189  -0.018043   0.059827   0.143586
   94  H 15  S   -0.143097  -0.006015  -0.056088  -0.004633  -0.000571
   95  H 15  S   -0.102125  -0.004522  -0.040945  -0.006140   0.001051

                     16         17         18         19         20
                   -0.3735    -0.3580    -0.3422    -0.3195    -0.2196
                     A          A          A          A          A   
    1  C  1  S   -0.008336  -0.012926  -0.005603  -0.018444   0.000433
    2  C  1  S    0.016548   0.027154   0.012875   0.038450  -0.000519
    3  C  1  X    0.220562   0.056243   0.234160   0.115003  -0.008462
    4  C  1  Y   -0.228319   0.171300  -0.056267   0.221528  -0.006176
    5  C  1  Z   -0.026344  -0.031523  -0.008353  -0.023924  -0.107787
    6  C  1  S    0.052323   0.061152   0.037119   0.118542  -0.005102
    7  C  1  X    0.095174   0.025455   0.122795   0.076067  -0.003054
    8  C  1  Y   -0.099484   0.088768  -0.015487   0.130927  -0.007034
    9  C  1  Z   -0.018390  -0.018914  -0.003619  -0.016742  -0.061635
   10  C  1 XX   -0.013417   0.008486  -0.014736   0.009309   0.003000
   11  C  1 YY    0.003529  -0.004615   0.007572  -0.005234   0.003811
   12  C  1 ZZ    0.010131  -0.007435   0.003347  -0.008946  -0.006745
   13  C  1 XY    0.011242   0.002488   0.009933   0.003563  -0.000161
   14  C  1 XZ   -0.003528   0.000087  -0.002347  -0.000021   0.011299
   15  C  1 YZ    0.006926  -0.001665   0.002741  -0.002636   0.016492
   16  C  2  S   -0.025005   0.001426   0.018893  -0.003493   0.000444
   17  C  2  S    0.053097   0.000634  -0.038334   0.015569  -0.000488
   18  C  2  X    0.031793  -0.055913  -0.294042  -0.067972   0.026539
   19  C  2  Y   -0.025271  -0.210443   0.076071  -0.241007   0.018885
   20  C  2  Z   -0.006753   0.007037   0.017950   0.017093   0.386076
   21  C  2  S    0.077538  -0.013396  -0.070987  -0.012663  -0.003096
   22  C  2  X    0.035560  -0.001199  -0.093381   0.007303   0.016730
   23  C  2  Y    0.017670  -0.075825   0.043762  -0.032342   0.014833
   24  C  2  Z   -0.004306   0.000483   0.005317   0.001599   0.303468
   25  C  2 XX   -0.007932   0.005919  -0.008863   0.012504   0.001876
   26  C  2 YY    0.003671  -0.009346   0.015797  -0.017223   0.000200
   27  C  2 ZZ   -0.000717   0.000072   0.001251   0.000468  -0.001863
   28  C  2 XY    0.006964   0.004795   0.006149   0.017346   0.000445
   29  C  2 XZ    0.000322  -0.000397   0.000025  -0.001470   0.017316
   30  C  2 YZ   -0.000129   0.000276  -0.000999  -0.000309  -0.000849
   31  C  3  S    0.022127  -0.005091   0.008599  -0.005306   0.000144
   32  C  3  S   -0.048037   0.010564  -0.014165   0.010645   0.000005
   33  C  3  X   -0.018241  -0.034418   0.317918   0.062353   0.016216
   34  C  3  Y    0.141398  -0.102751  -0.043903   0.290896   0.014897
   35  C  3  Z   -0.004308   0.003381  -0.013784  -0.014419   0.370781
   36  C  3  S   -0.083162   0.013639  -0.028987   0.024036  -0.000239
   37  C  3  X   -0.008251  -0.001676   0.077912   0.010505   0.011161
   38  C  3  Y    0.012343  -0.043137  -0.022584   0.012817   0.010777
   39  C  3  Z   -0.001124   0.000626  -0.002847  -0.000108   0.252446
   40  C  3 XX    0.010807  -0.003512  -0.008675   0.007614  -0.001829
   41  C  3 YY   -0.009248   0.003103   0.014516  -0.008351   0.000452
   42  C  3 ZZ    0.002072  -0.000563  -0.000552  -0.000490   0.001399
   43  C  3 XY   -0.003705  -0.002090   0.008078   0.019483  -0.000828
   44  C  3 XZ   -0.000136   0.000356   0.000020  -0.001422  -0.019705
   45  C  3 YZ    0.000006  -0.000259  -0.001289  -0.000518   0.005303
   46  C  4  S    0.002820   0.004246  -0.012372  -0.027125   0.000396
   47  C  4  S   -0.006879  -0.007613   0.027298   0.054420  -0.000868
   48  C  4  X    0.003810  -0.146471  -0.240619  -0.169483  -0.002845
   49  C  4  Y   -0.069531   0.278952  -0.003126  -0.201516  -0.001953
   50  C  4  Z   -0.009150  -0.004885   0.004568   0.013481  -0.088406
   51  C  4  S    0.008483  -0.021796   0.068839   0.162188  -0.002716
   52  C  4  X   -0.011414  -0.064505  -0.120023  -0.110668  -0.000635
   53  C  4  Y   -0.044469   0.137223  -0.015553  -0.104757   0.000588
   54  C  4  Z   -0.003093  -0.003390   0.002466   0.007495  -0.009176
   55  C  4 XX    0.003123  -0.007089  -0.008213   0.004239  -0.001304
   56  C  4 YY   -0.004294   0.019749   0.014442  -0.007335  -0.000328
   57  C  4 ZZ    0.000771  -0.010008  -0.010951  -0.003616   0.001617
   58  C  4 XY    0.001463  -0.007917   0.002764   0.009516  -0.001099
   59  C  4 XZ   -0.000875   0.000369  -0.000428  -0.000838  -0.018903
   60  C  4 YZ    0.000187  -0.000973  -0.001250  -0.000235  -0.005905
   61  C  5  S    0.012864  -0.010197  -0.007149   0.022550   0.000277
   62  C  5  S   -0.026132   0.020766   0.017230  -0.043879  -0.000349
   63  C  5  X    0.325813   0.175392  -0.154096   0.014601  -0.001280
   64  C  5  Y   -0.039994   0.153325   0.080112  -0.274819  -0.000309
   65  C  5  Z    0.010735  -0.013945   0.006953   0.011267  -0.079652
   66  C  5  S   -0.072370   0.040971   0.030101  -0.147623  -0.002198
   67  C  5  X    0.164898   0.077731  -0.065891   0.029814  -0.000252
   68  C  5  Y   -0.012430   0.061093   0.051497  -0.174328   0.001846
   69  C  5  Z    0.004258  -0.006693   0.001706   0.006263  -0.018636
   70  C  5 XX    0.000752  -0.003403  -0.004842   0.004491  -0.000487
   71  C  5 YY   -0.012523  -0.006525   0.009354  -0.000027   0.001073
   72  C  5 ZZ    0.015035   0.007127  -0.008138   0.002200  -0.000637
   73  C  5 XY   -0.007565  -0.014437   0.008811   0.012744   0.000049
   74  C  5 XZ    0.001066   0.000178   0.000287  -0.000387  -0.013041
   75  C  5 YZ    0.000911   0.000877  -0.001196  -0.000261   0.013807
   76  H  6  S    0.049827  -0.057067   0.016647  -0.062911  -0.100352
   77  H  6  S    0.039917  -0.059449   0.018395  -0.066343  -0.123887
   78  H  7  S    0.134050  -0.064968   0.056518  -0.082116   0.079221
   79  H  7  S    0.103521  -0.071563   0.060601  -0.086780   0.094629
   80  H  8  S   -0.191514   0.038451  -0.159366   0.026883   0.020573
   81  H  8  S   -0.181690   0.026473  -0.153495   0.015056   0.029051
   82  H  9  S    0.002379  -0.122739   0.090130  -0.171554   0.001015
   83  H  9  S   -0.021219  -0.103143   0.097869  -0.208268   0.001515
   84  H 10  S    0.013306  -0.082532  -0.087669  -0.025032   0.082428
   85  H 10  S    0.020166  -0.070961  -0.093828  -0.034431   0.131598
   86  H 11  S    0.000636  -0.080835  -0.092041  -0.026264  -0.083500
   87  H 11  S    0.009743  -0.069512  -0.098025  -0.035568  -0.132109
   88  H 12  S   -0.047802   0.209024   0.080832  -0.078163   0.000760
   89  H 12  S   -0.038138   0.184007   0.080925  -0.111969   0.001530
   90  H 13  S    0.121998   0.055532  -0.063772   0.015303  -0.077516
   91  H 13  S    0.113381   0.042040  -0.069511   0.019483  -0.119861
   92  H 14  S    0.109199   0.063441  -0.074012   0.012742   0.075298
   93  H 14  S    0.101814   0.048647  -0.080767   0.016703   0.117423
   94  H 15  S   -0.142200  -0.158665   0.065866   0.105322   0.001746
   95  H 15  S   -0.095405  -0.163544   0.082076   0.109157   0.004217

                     21         22         23         24         25
                    0.0356     0.1011     0.1287     0.1335     0.1579
                     A          A          A          A          A   
    1  C  1  S   -0.001437  -0.065540  -0.115598  -0.010804   0.017641
    2  C  1  S    0.003599   0.068750   0.133960   0.010947  -0.022977
    3  C  1  X    0.000050  -0.080929  -0.047936   0.135739   0.067402
    4  C  1  Y    0.012076  -0.054374  -0.081606  -0.165506  -0.121952
    5  C  1  Z    0.033444  -0.004538  -0.002650   0.014628  -0.043162
    6  C  1  S    0.008651   1.077200   1.880452   0.114349  -0.325422
    7  C  1  X   -0.019953  -0.218796  -0.109126   0.372174   0.225823
    8  C  1  Y    0.057963  -0.125378  -0.164932  -0.438818  -0.276580
    9  C  1  Z    0.189893  -0.015444  -0.012108   0.066821  -0.143600
   10  C  1 XX    0.002736  -0.012495  -0.009201   0.011311   0.002546
   11  C  1 YY    0.004375  -0.004683  -0.009621  -0.008617  -0.000667
   12  C  1 ZZ   -0.007508  -0.002814  -0.009521  -0.007563   0.000861
   13  C  1 XY    0.000615   0.010119   0.001541  -0.007431  -0.001070
   14  C  1 XZ    0.013298  -0.000217   0.000495   0.001584   0.002087
   15  C  1 YZ    0.023611   0.002085   0.000080  -0.001181   0.000606
   16  C  2  S    0.001211  -0.032089   0.027149   0.045946   0.026709
   17  C  2  S   -0.002320   0.078117  -0.034477  -0.032408  -0.062111
   18  C  2  X    0.024929  -0.006712  -0.000052   0.106455  -0.053982
   19  C  2  Y    0.019840   0.097818   0.009398  -0.212546  -0.023120
   20  C  2  Z    0.397374   0.006436   0.000924   0.013458   0.025714
   21  C  2  S   -0.000140   0.407301  -0.258080  -0.946192  -0.240567
   22  C  2  X    0.051973   0.038884   0.336491   0.085312  -0.171149
   23  C  2  Y    0.005758   0.306908   0.012608  -0.558254  -0.047830
   24  C  2  Z    0.520377   0.006540  -0.010610   0.020085   0.073275
   25  C  2 XX   -0.000965   0.006103   0.007137  -0.009817  -0.003571
   26  C  2 YY    0.000427  -0.000525   0.005328   0.020175   0.010784
   27  C  2 ZZ    0.000999  -0.003551  -0.003126   0.002504  -0.001787
   28  C  2 XY   -0.000770   0.002599   0.007668  -0.002988  -0.011179
   29  C  2 XZ   -0.023978  -0.001063  -0.000700   0.000717   0.001615
   30  C  2 YZ    0.009298   0.000394  -0.001233  -0.002943  -0.000373
   31  C  3  S   -0.001691  -0.000668   0.003703   0.013009   0.011996
   32  C  3  S    0.004497   0.047530  -0.011076   0.013035  -0.040409
   33  C  3  X   -0.024438   0.004744  -0.010861  -0.027154  -0.068487
   34  C  3  Y   -0.015847   0.025578   0.022369  -0.062317  -0.048480
   35  C  3  Z   -0.412096  -0.007029  -0.003020  -0.014352  -0.018832
   36  C  3  S   -0.008303  -0.060990  -0.208439  -0.238047  -0.019501
   37  C  3  X   -0.011644   0.067941   0.193369  -0.246451  -0.118538
   38  C  3  Y   -0.019309  -0.047464   0.059832   0.091404  -0.240156
   39  C  3  Z   -0.506279  -0.015267  -0.024818  -0.016611  -0.022792
   40  C  3 XX   -0.002664   0.003160  -0.015304   0.023338  -0.020195
   41  C  3 YY    0.000347   0.013311   0.006457  -0.005316   0.012246
   42  C  3 ZZ    0.001796  -0.004195   0.005080  -0.004920   0.004223
   43  C  3 XY   -0.000926  -0.006741   0.002818   0.012120   0.021030
   44  C  3 XZ   -0.019566  -0.000566   0.000318  -0.003772  -0.002563
   45  C  3 YZ    0.005953  -0.000240  -0.000693  -0.001849  -0.001517
   46  C  4  S    0.002133  -0.066858   0.080760  -0.028205  -0.087404
   47  C  4  S   -0.003939   0.075875  -0.090234   0.041316   0.118782
   48  C  4  X    0.001142   0.096087  -0.110903   0.081541  -0.106013
   49  C  4  Y    0.002571   0.064755  -0.054726  -0.179233   0.133380
   50  C  4  Z   -0.027115  -0.005890   0.006700   0.000969  -0.005338
   51  C  4  S   -0.023469   1.100362  -1.384563   0.389917   1.296437
   52  C  4  X   -0.006458   0.263102  -0.364707   0.279030  -0.410637
   53  C  4  Y    0.004580   0.264326  -0.101716  -0.540898   0.415071
   54  C  4  Z   -0.095769  -0.016360   0.019046  -0.013489  -0.011779
   55  C  4 XX    0.001922  -0.000752   0.010552  -0.004306  -0.004369
   56  C  4 YY    0.000687  -0.008953  -0.003646   0.002014  -0.020253
   57  C  4 ZZ   -0.002205  -0.007035   0.011917  -0.003870   0.005147
   58  C  4 XY    0.001622   0.005329  -0.001443  -0.006032   0.001364
   59  C  4 XZ    0.021235  -0.000309   0.000554   0.002049   0.002145
   60  C  4 YZ    0.014038   0.000047   0.001162   0.000725   0.002636
   61  C  5  S    0.002737  -0.100171  -0.009862  -0.023923   0.016868
   62  C  5  S   -0.004356   0.139211   0.020606  -0.006483  -0.007502
   63  C  5  X    0.004924   0.031568  -0.169845   0.082121  -0.209560
   64  C  5  Y    0.003553  -0.074658  -0.052479  -0.101523  -0.044471
   65  C  5  Z   -0.021811   0.000200   0.011095   0.011594   0.006237
   66  C  5  S   -0.030215   1.430487   0.095788   0.743783  -0.417827
   67  C  5  X   -0.001336   0.152343  -0.431190   0.238329  -0.741677
   68  C  5  Y    0.002940  -0.349155  -0.106017  -0.133973  -0.249731
   69  C  5  Z   -0.152620   0.004301   0.044029   0.067700   0.073611
   70  C  5 XX    0.000929  -0.010630  -0.001420   0.004225   0.001512
   71  C  5 YY   -0.002197  -0.003443   0.000123   0.000068  -0.013002
   72  C  5 ZZ    0.001697  -0.007921   0.001966  -0.010307   0.015272
   73  C  5 XY   -0.001090  -0.000157   0.001912  -0.003153  -0.017649
   74  C  5 XZ    0.014700   0.000149  -0.001203  -0.002208  -0.000795
   75  C  5 YZ   -0.022394  -0.000711  -0.000300  -0.001675  -0.000005
   76  H  6  S   -0.089166   0.006686  -0.018237  -0.028841   0.004974
   77  H  6  S   -0.365564  -0.419124  -0.795920  -0.418936   0.134406
   78  H  7  S    0.075634   0.009366  -0.023742  -0.038485  -0.004920
   79  H  7  S    0.337117  -0.424261  -0.880621  -0.554109  -0.289532
   80  H  8  S    0.014103  -0.047249  -0.012860   0.064960   0.009520
   81  H  8  S    0.013058  -0.612292  -0.692234   0.795592   0.538416
   82  H  9  S   -0.000638  -0.005130   0.019045   0.073216   0.060282
   83  H  9  S    0.011831  -0.524598   0.205558   1.214185   0.289090
   84  H 10  S   -0.069402  -0.003176   0.032013  -0.019488   0.017556
   85  H 10  S   -0.240471  -0.554524   0.781006  -0.481915  -0.152508
   86  H 11  S    0.071959  -0.001940   0.035778  -0.006730   0.030895
   87  H 11  S    0.268990  -0.552084   0.778403  -0.417623  -0.102053
   88  H 12  S   -0.001226  -0.032775  -0.016992   0.027605  -0.071968
   89  H 12  S   -0.002930  -0.572125   0.426365   0.615443  -1.274090
   90  H 13  S    0.084178  -0.012775  -0.001950  -0.018333   0.057503
   91  H 13  S    0.321056  -0.730635   0.207189  -0.477791   0.650135
   92  H 14  S   -0.078392  -0.016313   0.004919  -0.005032   0.069419
   93  H 14  S   -0.285548  -0.749802   0.278197  -0.357603   0.747602
   94  H 15  S   -0.003696  -0.014623  -0.000561  -0.001469  -0.108309
   95  H 15  S    0.005759  -0.651757  -0.553775  -0.189780  -0.920464

                     26         27         28         29         30
                    0.1754     0.1827     0.1896     0.1946     0.2080
                     A          A          A          A          A   
    1  C  1  S    0.054145   0.014665   0.018812  -0.005595   0.012879
    2  C  1  S   -0.047030  -0.011989  -0.021402  -0.002629  -0.011062
    3  C  1  X    0.127204   0.084589  -0.131579   0.001513  -0.082507
    4  C  1  Y    0.031095  -0.000007   0.102592  -0.060323   0.143988
    5  C  1  Z   -0.153616   0.087995  -0.208286  -0.207071   0.219792
    6  C  1  S   -1.146823  -0.336628  -0.353803   0.203489  -0.330557
    7  C  1  X    0.192774   0.216702  -0.572336   0.145024  -0.425732
    8  C  1  Y    0.137733  -0.051109   0.505984  -0.340447   0.624825
    9  C  1  Z   -0.484820   0.268262  -0.720510  -0.605743   0.782628
   10  C  1 XX   -0.005094  -0.000127  -0.005929   0.004405  -0.007141
   11  C  1 YY    0.000967   0.003568  -0.002856   0.000770   0.001443
   12  C  1 ZZ    0.014336  -0.000905   0.011521  -0.006009   0.006792
   13  C  1 XY    0.001337  -0.003074   0.009024   0.000141   0.003012
   14  C  1 XZ    0.003572   0.001444   0.002861   0.010619  -0.005714
   15  C  1 YZ    0.000377   0.006318   0.004800  -0.000635   0.007919
   16  C  2  S    0.013785   0.005058   0.006164  -0.024958   0.030882
   17  C  2  S   -0.060654  -0.009941  -0.047400   0.047472  -0.062541
   18  C  2  X    0.001267   0.003782  -0.014380  -0.000326  -0.015447
   19  C  2  Y   -0.018739   0.014235  -0.062813   0.070352  -0.098980
   20  C  2  Z    0.035016   0.020060   0.073812   0.081661  -0.058354
   21  C  2  S   -0.069168  -0.077271   0.131523   0.344598  -0.420161
   22  C  2  X   -0.027898  -0.084224   0.217652  -0.042194   0.010367
   23  C  2  Y   -0.270752   0.011268  -0.397919   0.363829  -0.507295
   24  C  2  Z    0.107102   0.142986   0.337211   0.246919  -0.259612
   25  C  2 XX    0.000865   0.000122   0.003762  -0.005833   0.009826
   26  C  2 YY   -0.007351   0.001342  -0.012388   0.002990  -0.010159
   27  C  2 ZZ    0.001008  -0.000129   0.002480   0.000202   0.002727
   28  C  2 XY    0.006281   0.003382  -0.006422   0.002931  -0.008986
   29  C  2 XZ    0.004377  -0.009345   0.001298   0.000501  -0.007260
   30  C  2 YZ    0.001163   0.001363   0.010486  -0.004726  -0.007478
   31  C  3  S    0.008173   0.007482  -0.019956   0.006098  -0.019372
   32  C  3  S   -0.022693  -0.011559   0.032428  -0.014345   0.035644
   33  C  3  X   -0.000911  -0.010655  -0.015380   0.034490  -0.055496
   34  C  3  Y    0.083991   0.047792  -0.073449   0.003109  -0.038171
   35  C  3  Z   -0.003459  -0.131745  -0.104072  -0.105429   0.094966
   36  C  3  S   -0.137777  -0.064676   0.077149   0.006726   0.175452
   37  C  3  X    0.117084  -0.070097   0.266326  -0.031741   0.038947
   38  C  3  Y    0.488950   0.198051  -0.103125  -0.098416   0.047425
   39  C  3  Z    0.054631  -0.515353  -0.338103  -0.223338   0.176903
   40  C  3 XX   -0.011444  -0.003840  -0.002742   0.005081  -0.007087
   41  C  3 YY    0.005316   0.005423  -0.007314  -0.002924  -0.001801
   42  C  3 ZZ    0.002218  -0.000104   0.001626   0.000921   0.002802
   43  C  3 XY    0.001076  -0.001435   0.009880  -0.008321   0.011063
   44  C  3 XZ   -0.003752   0.001822  -0.004267  -0.013377   0.004227
   45  C  3 YZ   -0.000060   0.000569   0.007644  -0.018634  -0.019320
   46  C  4  S    0.057464   0.019766  -0.003753   0.001782  -0.004896
   47  C  4  S   -0.045656  -0.020101   0.021467  -0.014486   0.024926
   48  C  4  X   -0.136345  -0.071949   0.111524   0.021545  -0.018148
   49  C  4  Y    0.008196   0.073063  -0.161801   0.000028  -0.051002
   50  C  4  Z   -0.101441   0.292433   0.143783  -0.174227  -0.168736
   51  C  4  S   -1.154408  -0.356592  -0.123995   0.081999  -0.074466
   52  C  4  X   -0.313721  -0.179748   0.355403   0.073091  -0.051142
   53  C  4  Y    0.252435   0.277012  -0.367950  -0.091259  -0.040476
   54  C  4  Z   -0.324345   0.952353   0.534630  -0.593002  -0.639290
   55  C  4 XX    0.008879   0.003704   0.000307  -0.000646   0.001746
   56  C  4 YY   -0.007087  -0.002452   0.001349   0.006583  -0.007023
   57  C  4 ZZ    0.013405   0.003719  -0.001572  -0.006582   0.005853
   58  C  4 XY    0.002148   0.002006  -0.001329   0.000566   0.000068
   59  C  4 XZ    0.001245   0.005043   0.001736   0.018746   0.006459
   60  C  4 YZ   -0.000932   0.012390   0.008455   0.004358  -0.005515
   61  C  5  S   -0.101944  -0.039971   0.010132   0.019637  -0.014561
   62  C  5  S    0.104191   0.041841  -0.014775  -0.018472   0.013420
   63  C  5  X    0.047552   0.062006  -0.120166   0.015137  -0.032538
   64  C  5  Y   -0.102763   0.020430  -0.146116   0.069640  -0.101858
   65  C  5  Z   -0.080426   0.276094   0.056419   0.243879   0.199384
   66  C  5  S    1.823586   0.700345  -0.082993  -0.417138   0.368235
   67  C  5  X   -0.011343   0.129201  -0.425289   0.124157  -0.168986
   68  C  5  Y   -0.073157   0.166327  -0.500111   0.184325  -0.313894
   69  C  5  Z   -0.185456   0.843939   0.245389   1.002767   0.459617
   70  C  5 XX   -0.006662  -0.000462  -0.005026   0.000493  -0.002331
   71  C  5 YY   -0.011535  -0.008237   0.006372   0.003592  -0.000500
   72  C  5 ZZ   -0.006136  -0.001387   0.002806  -0.000212   0.000898
   73  C  5 XY   -0.003162  -0.000711  -0.007544   0.007164  -0.012567
   74  C  5 XZ   -0.000798   0.001468   0.003945  -0.014794  -0.006367
   75  C  5 YZ    0.001697  -0.013136  -0.011116  -0.004569   0.012070
   76  H  6  S    0.059354  -0.028228   0.058755  -0.018680  -0.008486
   77  H  6  S    1.068553  -0.287999   1.219165   0.518989  -0.506896
   78  H  7  S    0.016916   0.027118   0.027172  -0.032933   0.086397
   79  H  7  S    0.090974   0.343918   0.044879  -0.915794   1.432037
   80  H  8  S   -0.018367   0.015006  -0.071192   0.032691  -0.063925
   81  H  8  S    0.496476   0.456271  -0.914475   0.149412  -0.594599
   82  H  9  S   -0.033132  -0.010426  -0.008362  -0.007380   0.002543
   83  H  9  S    0.211769  -0.039714   0.426001  -0.526478   0.695511
   84  H 10  S    0.032604   0.031679   0.000382  -0.099516  -0.027162
   85  H 10  S    0.373778   1.343815   0.188025  -0.824797  -0.658954
   86  H 11  S    0.059253   0.008237  -0.023909   0.065147   0.060767
   87  H 11  S    1.080336  -0.620410  -0.851074   0.620726   0.705517
   88  H 12  S   -0.055428  -0.032361   0.034381   0.024824  -0.019771
   89  H 12  S   -0.106612  -0.312155   0.754297   0.123351   0.024212
   90  H 13  S   -0.015851  -0.000806   0.023714  -0.085253  -0.034068
   91  H 13  S   -0.502556  -1.213944   0.080138  -0.966309  -0.660934
   92  H 14  S   -0.009019  -0.003608  -0.009951   0.066081   0.056296
   93  H 14  S   -0.943018   0.542805   0.415827   1.145420   0.556817
   94  H 15  S   -0.026400   0.000978  -0.054650   0.033303  -0.054077
   95  H 15  S   -0.747136  -0.050561  -0.762173   0.425761  -0.613532

                     31         32         33         34         35
                    0.2341     0.2379     0.2571     0.3365     0.4226
                     A          A          A          A          A   
    1  C  1  S    0.068805   0.027199  -0.041433   0.031536   0.005100
    2  C  1  S   -0.066579  -0.004446   0.061350   0.052899   0.031986
    3  C  1  X    0.072994  -0.043730   0.225614  -0.081450   0.136673
    4  C  1  Y   -0.158375  -0.145520   0.043412   0.005923   0.074617
    5  C  1  Z    0.138775  -0.006324   0.025314  -0.034413   0.048231
    6  C  1  S   -1.305069  -0.653523   0.457721  -1.500933   0.283741
    7  C  1  X   -0.110032  -0.489445   0.947915  -1.339840  -0.503076
    8  C  1  Y   -0.766293  -0.661858   0.456409  -0.949619   0.729930
    9  C  1  Z    0.442673   0.022087   0.044363   0.105154  -0.026601
   10  C  1 XX    0.004786   0.000180  -0.024847   0.009388   0.044567
   11  C  1 YY    0.007796   0.010170   0.001989   0.007819  -0.041929
   12  C  1 ZZ   -0.000549  -0.003395   0.014053  -0.011346   0.007717
   13  C  1 XY    0.019550   0.014696  -0.019284   0.017951   0.014681
   14  C  1 XZ   -0.002206  -0.001117   0.003650  -0.003258  -0.001549
   15  C  1 YZ    0.000460  -0.001651   0.003735  -0.003845   0.000114
   16  C  2  S   -0.100210  -0.016372   0.070933  -0.032590  -0.078681
   17  C  2  S    0.123300   0.005690  -0.110230   0.047107  -0.073304
   18  C  2  X   -0.148826  -0.166120   0.101673  -0.097220   0.066513
   19  C  2  Y    0.079852  -0.110391   0.200601  -0.248959  -0.130572
   20  C  2  Z   -0.015205   0.021623  -0.024618   0.020924   0.006837
   21  C  2  S    1.911808   0.707442  -1.124527   0.700827   4.082731
   22  C  2  X   -0.492360  -0.693264   0.263375  -1.184987   3.694333
   23  C  2  Y    0.080960  -0.401628   0.363720  -2.099373  -1.129213
   24  C  2  Z   -0.089911   0.085921  -0.097441   0.196360  -0.167830
   25  C  2 XX   -0.011603   0.000164   0.010979   0.015881  -0.018647
   26  C  2 YY    0.002758  -0.001652  -0.009731  -0.008147   0.014259
   27  C  2 ZZ   -0.003862   0.000078   0.001245  -0.002115  -0.003966
   28  C  2 XY   -0.003073  -0.017687   0.015579   0.013167   0.038463
   29  C  2 XZ   -0.001965   0.001465  -0.002065  -0.001053  -0.001474
   30  C  2 YZ   -0.004781   0.001179  -0.002969   0.000537  -0.003073
   31  C  3  S    0.026607  -0.123762  -0.093889   0.010331   0.065541
   32  C  3  S   -0.056647   0.132575   0.110997  -0.004971  -0.119544
   33  C  3  X    0.076911   0.160097   0.158729   0.049578   0.335039
   34  C  3  Y   -0.002012  -0.182863   0.224834   0.350497  -0.082251
   35  C  3  Z    0.025071  -0.007726  -0.004734  -0.022806   0.014592
   36  C  3  S   -0.252921   2.635014   1.852378  -0.016063  -3.289233
   37  C  3  X    0.300588   0.871903   0.779866   0.441730   3.905684
   38  C  3  Y    0.176126  -0.591024   0.853336   2.792646  -1.015558
   39  C  3  Z    0.048614  -0.029503  -0.029472  -0.156104  -0.162089
   40  C  3 XX    0.007199  -0.000386  -0.012622   0.011358  -0.029235
   41  C  3 YY   -0.007483  -0.012226   0.007701  -0.012211  -0.004492
   42  C  3 ZZ    0.001704  -0.002188  -0.002548   0.000405   0.005581
   43  C  3 XY    0.007991   0.010786  -0.012134   0.017496  -0.018474
   44  C  3 XZ    0.001369  -0.001374   0.001730  -0.002182   0.004219
   45  C  3 YZ   -0.001274   0.000643  -0.001271   0.000273   0.000845
   46  C  4  S    0.020578   0.046719   0.059992   0.025510   0.003008
   47  C  4  S    0.002955  -0.015546  -0.035360   0.077371  -0.013702
   48  C  4  X    0.016526  -0.034169   0.234604  -0.023901   0.187104
   49  C  4  Y   -0.195079   0.090661   0.049490   0.068352   0.033635
   50  C  4  Z    0.001398   0.004002  -0.014853  -0.003627  -0.022453
   51  C  4  S   -0.660700  -1.077158  -1.221393  -1.382891  -0.496116
   52  C  4  X    0.247261   0.094852   1.292740   1.239857  -0.445395
   53  C  4  Y   -0.453449   0.925256   0.756949   0.712222   1.177983
   54  C  4  Z   -0.042765  -0.015672  -0.125203  -0.077798  -0.027451
   55  C  4 XX   -0.006880  -0.011214   0.023259   0.009330  -0.002564
   56  C  4 YY    0.012241   0.012094  -0.001340   0.011146  -0.012187
   57  C  4 ZZ   -0.000982   0.005481  -0.009770  -0.008659   0.008947
   58  C  4 XY   -0.004331   0.020506   0.027621   0.014439   0.006748
   59  C  4 XZ   -0.000439   0.000108  -0.002681  -0.000739  -0.000626
   60  C  4 YZ   -0.002094  -0.000662  -0.002289  -0.001088   0.001040
   61  C  5  S   -0.020451   0.067506   0.009174  -0.037924   0.009753
   62  C  5  S    0.004103  -0.041158  -0.011196  -0.048214   0.055620
   63  C  5  X   -0.172787   0.135723  -0.068881  -0.014654   0.065905
[...]
       FREQUENCY:      1512.70     1520.32     1527.53     1528.49     1759.88  
        SYMMETRY:         A           A           A           A           A   
    REDUCED MASS:      1.04514     1.04266     1.06916     1.06627     6.00480
    IR INTENSITY:      0.03233     0.36578     0.06920     0.18430     0.02010

  1   C            X -0.01131476 -0.00277829  0.00554681  0.01165541  0.02479412
                   Y  0.01114295  0.00313752  0.00339844 -0.04598366  0.00419728
                   Z -0.04768731 -0.01042927 -0.00166674 -0.00564382 -0.00229384
  2   C            X -0.00012371  0.00381429 -0.04627691 -0.01759778 -0.18700527
                   Y  0.00275888  0.00050946 -0.00309246 -0.00102161  0.01970025
                   Z -0.01594431 -0.00429313  0.00405386  0.00090056  0.01931937
  3   C            X -0.00526327 -0.00434597  0.00003288  0.03050152  0.19034020
                   Y -0.00186601  0.00111911  0.01313021 -0.01142082 -0.04396571
                   Z  0.00642865 -0.02395273 -0.00128007 -0.00438808 -0.02048557
  4   C            X  0.00848696 -0.00076095 -0.01930453  0.00357282 -0.01757282
                   Y -0.00817770 -0.00230428  0.03529262 -0.00742906 -0.00257225
                   Z  0.01190827 -0.02671070  0.00259841 -0.00110659  0.00162952
  5   C            X -0.00781683 -0.00139111 -0.02224829 -0.02437112 -0.01703432
                   Y -0.00489192  0.00276848 -0.02656054 -0.02548227  0.01184042
                   Z  0.00466860 -0.03945841 -0.00257976 -0.00067575  0.00215940
  6   H            X  0.05974006  0.00839751  0.09278457 -0.31641030  0.07329723
                   Y -0.49790700 -0.11603246 -0.03870915  0.28684838  0.01258653
                   Z  0.08062016  0.01647417  0.04945568 -0.22212431  0.02693056
  7   H            X  0.00833973 -0.00122977 -0.06502407  0.38216294 -0.08097096
                   Y -0.04798093 -0.01159698 -0.01792707  0.06528890 -0.02293384
                   Z  0.64090017  0.14885990  0.02515027 -0.01868541  0.00784142
  8   H            X  0.10735373  0.02234560  0.08176280 -0.25218915  0.06746196
                   Y  0.38604250  0.08326177 -0.00653037  0.28283325  0.01819692
                   Z -0.01448706 -0.00320968 -0.06976774  0.32433021 -0.04139335
  9   H            X  0.00133984 -0.00554455  0.14261142 -0.02124369  0.12849190
                   Y  0.00005556 -0.00349182  0.04236326 -0.00242234  0.10911358
                   Z  0.02725271  0.02343229 -0.00972286  0.00337059 -0.00782995
 10   H            X -0.09780341 -0.01570189  0.36824843 -0.11245281 -0.06926365
                   Y  0.15766028 -0.25111256 -0.22345559  0.03305040 -0.02244461
                   Z -0.06149137 -0.01144936  0.23248374 -0.06937566 -0.03220481
 11   H            X -0.06254572 -0.04032963  0.31080688 -0.09553125 -0.06180874
                   Y -0.06822192  0.28776517 -0.17231995  0.03618631 -0.02684178
                   Z  0.05807853  0.06669465 -0.31962893  0.09489377  0.04360312
 12   H            X  0.04751732  0.06888261 -0.31994155  0.08494514  0.06950094
                   Y  0.02826811 -0.00813369 -0.11111099  0.02993747  0.03192317
                   Z -0.16742188  0.38206764  0.04611076 -0.00014625 -0.00592048
 13   H            X  0.10763721 -0.19327373  0.24300755  0.21826345 -0.05189832
                   Y  0.05018903 -0.34769433  0.02972740  0.08116234  0.04760530
                   Z -0.07961483  0.05291417 -0.20647675 -0.17566249  0.04812895
 14   H            X  0.07544171  0.16199851  0.30564740  0.26144863 -0.05939816
                   Y -0.04396674  0.33797164  0.07234589  0.09878310  0.05242263
                   Z  0.05553029  0.02293190  0.17019157  0.14531632 -0.03472098
 15   H            X -0.05613488  0.05948944 -0.18057968 -0.19381483  0.06160636
                   Y  0.04816950 -0.03321601  0.16161056  0.17582233 -0.07121981
                   Z -0.05563366  0.54965804  0.06887114  0.04811832 -0.00807114

 TRANS. SAYVETZ    X -0.00000013 -0.00000132 -0.00001347 -0.00004247 -0.00011588
                   Y -0.00000099 -0.00000302 -0.00005253 -0.00004919 -0.00018717
                   Z  0.00000492  0.00001123  0.00007087  0.00008848  0.00028147
               TOTAL  0.00000501  0.00001170  0.00008924  0.00010978  0.00035733

   ROT. SAYVETZ    X  0.00141935  0.00104635  0.00033066 -0.00013589  0.00075038
                   Y  0.00009395  0.00045964  0.00117451 -0.00013434  0.00070225
                   Z  0.00101321  0.00114381 -0.00019984  0.00229333  0.00069689
               TOTAL  0.00174642  0.00161692  0.00123643  0.00230127  0.00124172

                           36          37          38          39          40
       FREQUENCY:      3021.46     3024.75     3028.33     3063.45     3064.52  
        SYMMETRY:         A           A           A           A           A   
    REDUCED MASS:      1.04017     1.04087     1.04098     1.09964     1.09974
    IR INTENSITY:      0.38199     1.81091     0.58230     0.01715     0.87914

  1   C            X  0.01079788  0.04770227 -0.02028869  0.00365899 -0.01121432
                   Y  0.00230382  0.00501412 -0.00034981 -0.00122092  0.00405063
                   Z -0.00181856 -0.00837901  0.00382219  0.02764674 -0.08173728
  2   C            X -0.00024098 -0.00033961 -0.00114841 -0.00005893  0.00006555
                   Y  0.00000649  0.00138081 -0.00296426 -0.00001342 -0.00031684
                   Z  0.00002251  0.00009187  0.00000610 -0.00003494 -0.00030097
  3   C            X  0.00025327 -0.00060568  0.00188656  0.00001296 -0.00000659
                   Y  0.00044836  0.00035800 -0.00070434  0.00003721 -0.00000449
                   Z  0.00000710  0.00007513 -0.00018459 -0.00018340 -0.00035201
  4   C            X -0.03145848  0.02072827  0.03091808  0.00346874  0.00106828
                   Y -0.01093837  0.00728176  0.01211060 -0.00149993 -0.00038241
                   Z  0.00233332 -0.00166337 -0.00246216  0.03282270  0.00985039
  5   C            X  0.03198549  0.00311194  0.02972794 -0.00513436 -0.00156189
                   Y -0.02375216 -0.00443837 -0.02154792  0.00142503  0.00049897
                   Z -0.00102892 -0.00000349 -0.00054555 -0.07547488 -0.02605924
  6   H            X -0.06544746 -0.28038745  0.11925388  0.10114484 -0.29813750
                   Y  0.01886715  0.08081141 -0.03286169 -0.02915445  0.08523094
                   Z  0.12652312  0.54168795 -0.22890216 -0.17886296  0.52656257
  7   H            X  0.01966736  0.07631158 -0.02761853  0.00268156 -0.00717961
                   Y -0.07534006 -0.27111422  0.09264440 -0.00801613  0.01993876
                   Z -0.00692302 -0.02562536  0.00904210  0.00542257 -0.01655087
  8   H            X -0.08465448 -0.36102467  0.15154582 -0.14741325  0.43874976
                   Y  0.03014766  0.12852026 -0.05242164  0.05201768 -0.15375386
                   Z -0.09767472 -0.41655231  0.17422191 -0.15718548  0.46783756
  9   H            X  0.00180573  0.00748377 -0.00829470  0.00000747 -0.00088389
                   Y -0.00302721 -0.01806818  0.03792646  0.00002837  0.00425001
                   Z -0.00029637 -0.00149132  0.00237331 -0.00085096  0.00182938
 10   H            X  0.19885890 -0.12989715 -0.19921967  0.13018821  0.03856339
                   Y -0.02386780  0.01529693  0.02207558 -0.01662534 -0.00506169
                   Z -0.35932702  0.23436713  0.35660044 -0.21611440 -0.06426950
 11   H            X  0.27254105 -0.17670816 -0.27003380 -0.17233058 -0.05204295
                   Y -0.05525948  0.03546102  0.05257311  0.03477603  0.01059108
                   Z  0.31194065 -0.20210957 -0.30683709 -0.18328503 -0.05550084
 12   H            X -0.09648791  0.06216393  0.09864244  0.00081253  0.00063415
                   Y  0.20742526 -0.13677514 -0.21818180 -0.00034202 -0.00095265
                   Z  0.01943584 -0.01275114 -0.02032662  0.00885196  0.00255842
 13   H            X -0.31786201 -0.04242946 -0.29221144  0.36693470  0.12533799
                   Y  0.08824807  0.01186805  0.08323953 -0.10244012 -0.03526797
                   Z -0.38204394 -0.05085901 -0.34999277  0.40833865  0.13951865
 14   H            X -0.22722887 -0.02974518 -0.20564583 -0.31604964 -0.10964676
                   Y  0.05109868  0.00673943  0.04838056  0.07320528  0.02572838
                   Z  0.40190290  0.05243617  0.36295108  0.51309047  0.17834185
 15   H            X  0.16381586  0.03364748  0.14424974  0.01083499  0.00330065
                   Y  0.14191606  0.03301383  0.12682116  0.01169285  0.00349638
                   Z -0.00776628 -0.00149540 -0.00667248 -0.01813322 -0.00631415

 TRANS. SAYVETZ    X -0.00000202  0.00000323 -0.00001546 -0.00000189 -0.00000707
                   Y  0.00000112  0.00001513 -0.00001957 -0.00000366 -0.00000872
                   Z  0.00000171 -0.00001906  0.00003057  0.00000480  0.00001037
               TOTAL  0.00000287  0.00002455  0.00003946  0.00000633  0.00001528

   ROT. SAYVETZ    X -0.00010370  0.00008292  0.00010589 -0.00002354  0.00040449
                   Y -0.00023231 -0.00015725 -0.00028713 -0.00012134 -0.00019749
                   Z  0.00021014  0.00029166  0.00004323  0.00015072  0.00015603
               TOTAL  0.00032997  0.00034157  0.00030907  0.00019492  0.00047640

                           41          42          43          44          45
       FREQUENCY:      3068.05     3119.70     3122.65     3135.21     3143.61  
        SYMMETRY:         A           A           A           A           A   
    REDUCED MASS:      1.09946     1.09590     1.09597     1.09200     1.09313
    IR INTENSITY:      1.22566     0.34143     0.14920     0.66078     1.41396

  1   C            X  0.00013180  0.01284062  0.02195964  0.01222969  0.02095583
                   Y -0.00003725 -0.03174884 -0.04964030 -0.02103132 -0.04550529
                   Z  0.00132529 -0.00316681 -0.00499334 -0.00221203 -0.00457054
  2   C            X -0.00003128 -0.01027713 -0.00637638  0.01411168  0.00911963
                   Y -0.00009313  0.04014885  0.02709681 -0.05261117 -0.03263458
                   Z -0.00027592  0.00259940  0.00169915 -0.00347440 -0.00217887
  3   C            X -0.00006076  0.00389095  0.00052379 -0.00165541 -0.00268400
                   Y  0.00005608 -0.00028379  0.00039728 -0.00101659 -0.00023472
                   Z -0.00070308 -0.00039464 -0.00002858  0.00014240  0.00027158
  4   C            X -0.00811076  0.03825526 -0.03138020  0.00856918  0.00383064
                   Y  0.00395009 -0.05226127  0.04462625 -0.01325809 -0.00554997
                   Z -0.07955263 -0.00656674  0.00548459 -0.00147662 -0.00067347
  5   C            X -0.00233476  0.01094177  0.02047712  0.04652055 -0.04824963
                   Y  0.00073171  0.00552373  0.01181436  0.03175559 -0.03200117
                   Z -0.03411287 -0.00087879 -0.00145249 -0.00303182  0.00316716
  6   H            X  0.00470768 -0.02858624 -0.05158710 -0.03442123 -0.05092814
                   Y -0.00178976  0.00362555  0.00672622  0.00394271  0.00609859
                   Z -0.00872966  0.06310217  0.10970060  0.06512626  0.10320863
  7   H            X  0.00012572 -0.09174115 -0.14211685 -0.05594944 -0.13220846
                   Y -0.00039845  0.36292947  0.55991729  0.22890187  0.52146196
                   Z  0.00029941  0.03203758  0.04952635  0.02005512  0.04609731
  8   H            X -0.00631263 -0.04385826 -0.07948213 -0.05247736 -0.07844275
                   Y  0.00270741  0.01132586  0.02056160  0.01254142  0.01964405
                   Z -0.00691910 -0.05626672 -0.09875275 -0.05928548 -0.09352814
  9   H            X -0.00027298  0.10055148  0.07258661 -0.13664137 -0.08138884
                   Y  0.00120763 -0.47102678 -0.32317415  0.62769382  0.38311672
                   Z -0.00075701 -0.02856704 -0.02004849  0.03819175  0.02298859
 10   H            X -0.32121187 -0.08842630  0.06706636 -0.01800745 -0.00634121
                   Y  0.03614299 -0.00056864 -0.00098150  0.00021736  0.00121661
                   Z  0.52946220  0.16766956 -0.12956478  0.03502752  0.01309686
 11   H            X  0.41825465 -0.11899427  0.09047811 -0.02507559 -0.00882808
                   Y -0.07992783  0.01335157 -0.01170580  0.00324565  0.00232302
                   Z  0.44186807 -0.14327387  0.11055473 -0.03070066 -0.01123515
 12   H            X  0.00018996 -0.26010486  0.22159791 -0.06397910 -0.02816852
                   Y -0.00367949  0.60174407 -0.51827253  0.15547995  0.06791898
                   Z -0.01697062  0.05466675 -0.04685081  0.01379175  0.00606342
 13   H            X  0.16700918 -0.02568512 -0.03583516 -0.06714492  0.07139502
                   Y -0.04877615  0.01087007  0.01336573  0.02746924 -0.02831850
                   Z  0.18566619 -0.03259586 -0.04724862 -0.09337126  0.09703136
 14   H            X -0.14284467 -0.02098506 -0.02854323 -0.05275525  0.05664355
                   Y  0.03521507  0.00852277  0.00975407  0.02028024 -0.02077320
                   Z  0.23153234  0.03933994  0.05576731  0.10943140 -0.11404248
 15   H            X  0.00424918 -0.08481130 -0.17612268 -0.44343190  0.46099655
                   Y  0.00442580 -0.08092936 -0.16452425 -0.41106778  0.42760196
                   Z -0.00616477  0.00401216  0.00846311  0.02143059 -0.02221737

 TRANS. SAYVETZ    X -0.00000540 -0.00000862  0.00000464 -0.00000819 -0.00001483
                   Y -0.00001226 -0.00001295  0.00000418 -0.00000183 -0.00001785
                   Z  0.00001483  0.00001710 -0.00000743  0.00000401  0.00002480
               TOTAL  0.00001999  0.00002311  0.00000971  0.00000930  0.00003396

   ROT. SAYVETZ    X -0.00008377  0.00008259  0.00033051  0.00004762 -0.00009124
                   Y  0.00012153  0.00000313 -0.00002376 -0.00027669  0.00023143
                   Z  0.00015524 -0.00015766 -0.00022426  0.00036644  0.00023426
               TOTAL  0.00021421  0.00017801  0.00040012  0.00046163  0.00034170

 REFERENCE ON SAYVETZ CONDITIONS - A. SAYVETZ, J.CHEM.PHYS., 7, 383-389(1939).

 NOTE - THE MODES J,K ARE ORTHONORMALIZED ACCORDING TO
 SUM ON I   M(I) * (X(I,J)*X(I,K) + Y(I,J)*Y(I,K) + Z(I,J)*Z(I,K)) = DELTA(J,K)

  MODE FREQ(CM**-1)  SYMMETRY  RED. MASS  IR INTENS.
     1       9.554    A        2.780182    0.000347
     2       5.847    A        2.954765    0.000139
     3       0.115    A        4.674772    0.000000
     4       0.010    A        4.673581    0.000000
     5       0.071    A        4.670850    0.000000
     6       3.510    A        2.445027    0.000302
     7     134.999    A        1.032256    0.012819
     8     158.580    A        1.014499    0.000251
     9     177.140    A        1.217853    0.027368
    10     264.148    A        1.819448    0.032484
    11     300.749    A        2.623935    0.005757
    12     384.133    A        2.215221    0.008323
    13     453.998    A        2.253877    0.044561
    14     527.377    A        2.806060    0.050509
    15     774.718    A        2.911233    0.038765
    16     837.175    A        1.129994    0.249429
    17     969.283    A        1.573914    0.046481
    18     980.995    A        1.528888    0.038863
    19    1031.086    A        1.239497    0.045725
    20    1075.184    A        1.518443    0.015034
    21    1080.319    A        1.703348    0.137854
    22    1119.047    A        1.632146    0.011011
    23    1143.469    A        1.980701    0.221684
    24    1247.247    A        2.586814    0.118367
    25    1392.420    A        1.288742    0.109609
    26    1439.092    A        1.353383    0.100620
    27    1442.091    A        1.301819    0.005784
    28    1453.658    A        1.220202    0.016008
    29    1501.490    A        1.046378    0.018212
    30    1512.510    A        1.046589    0.033475
    31    1512.704    A        1.045141    0.032331
    32    1520.323    A        1.042659    0.365778
    33    1527.528    A        1.069158    0.069196
    34    1528.490    A        1.066272    0.184297
    35    1759.879    A        6.004799    0.020100
    36    3021.462    A        1.040166    0.381989
    37    3024.748    A        1.040870    1.810910
    38    3028.331    A        1.040981    0.582297
    39    3063.453    A        1.099638    0.017147
    40    3064.519    A        1.099741    0.879143
    41    3068.054    A        1.099457    1.225664
    42    3119.695    A        1.095901    0.341434
    43    3122.654    A        1.095972    0.149201
    44    3135.207    A        1.092004    0.660780
    45    3143.614    A        1.093127    1.413959

     -------------------------------
     THERMOCHEMISTRY AT T=  298.15 K
     -------------------------------

 USING IDEAL GAS, RIGID ROTOR, HARMONIC NORMAL MODE APPROXIMATIONS.
 P=  1.01325E+05 PASCAL.
 ALL FREQUENCIES ARE SCALED BY   1.00000
 THE MOMENTS OF INERTIA ARE (IN AMU*BOHR**2)
            225.55441           516.54678           708.65712
 THE ROTATIONAL SYMMETRY NUMBER IS  1.0
 THE ROTATIONAL CONSTANTS ARE (IN GHZ)
      7.99403     3.49066     2.54437
      7 -     45 VIBRATIONAL MODES ARE USED IN THERMOCHEMISTRY.
 THE HARMONIC ZERO POINT ENERGY IS (SCALED BY   1.000)
        0.136785 HARTREE/MOLECULE    30020.785498 CM**-1/MOLECULE 
       85.833819 KCAL/MOL              359.128699 KJ/MOL

               Q               LN Q
 ELEC.     1.00000E+00       0.000000
 TRANS.    2.30584E+07      16.953539
 ROT.      1.02858E+05      11.541109
 VIB.      1.96708E+01       2.979133
 TOT.      4.66541E+13      31.473782

              E         H         G         CV        CP        S
           KJ/MOL    KJ/MOL    KJ/MOL   J/MOL-K   J/MOL-K   J/MOL-K
 ELEC.      0.000     0.000     0.000     0.000     0.000     0.000
 TRANS.     3.718     6.197   -42.027    12.472    20.786   161.745
 ROT.       3.718     3.718   -28.610    12.472    12.472   108.429
 VIB.     369.652   369.652   351.744    74.044    74.044    60.064
 TOTAL    377.088   379.567   281.107    98.987   107.301   330.237
 VIB. THERMAL CORRECTION E(T)-E(0) = H(T)-H(0) =     10522.849 J/MOL

              E         H         G         CV        CP        S
         KCAL/MOL  KCAL/MOL  KCAL/MOL CAL/MOL-K CAL/MOL-K CAL/MOL-K
 ELEC.      0.000     0.000     0.000     0.000     0.000     0.000
 TRANS.     0.889     1.481   -10.045     2.981     4.968    38.658
 ROT.       0.889     0.889    -6.838     2.981     2.981    25.915
 VIB.      88.349    88.349    84.069    17.697    17.697    14.356
 TOTAL     90.126    90.719    67.186    23.658    25.646    78.929
 VIB. THERMAL CORRECTION E(T)-E(0) = H(T)-H(0) =      2515.021 CAL/MOL
 ......END OF NORMAL COORDINATE ANALYSIS......
 STEP CPU TIME =     0.01 TOTAL CPU TIME =       3339.4 (     55.7 MIN)
 TOTAL WALL CLOCK TIME=       3351.8 SECONDS, CPU UTILIZATION IS    99.63%
               1132180  WORDS OF DYNAMIC MEMORY USED
 EXECUTION OF GAMESS TERMINATED NORMALLY Mon Oct  3 03:19:26 2022
 DDI: 263640 bytes (0.3 MB / 0 MWords) used by master data server.

 ----------------------------------------
 CPU timing information for all processes
 ========================================
 0: 3332.550 + 6.827 = 3339.378
 ----------------------------------------
 ddikick.x: exited gracefully.
----- accounting info -----
Files used on the master node chemcompute-node-0.novalocal were:
-rw-r--r--. 1 chemcomp chemcomp     1307 Oct  3 02:23 /scratch/120221/459410.F05
-rw-rw-r--. 1 chemcomp chemcomp 65536000 Oct  3 03:19 /scratch/120221/459410.F10
-rw-rw-r--. 1 chemcomp chemcomp  7459512 Oct  3 03:18 /scratch/120221/459410.F22
Mon Oct  3 03:19:29 UTC 2022
0.098u 0.040s 55:55.12 0.0%	0+0k 8+208io 0pf+0w
Finishing Up...
Looking for IR data...
Looking for Raman data...
vibramans not found
Looking for thermodynamics data...
Looking for UV-Vis data...
chemcompute.org
{'UTCtimestamp': '2022-10-03T03:19:32.105485', 'cluster': 'jetstream2', 'clusterJobNumber': '120221', 'status': 'COMPLETE', 'nodeList': 'chemcompute-node-0'}
120221
