
    -----------------------------------------------------------------------
          Psi4: An Open-Source Ab Initio Electronic Structure Package
                               Psi4 1.5 release

                         Git: Rev {HEAD} e9f4d6d 


    D. G. A. Smith, L. A. Burns, A. C. Simmonett, R. M. Parrish,
    M. C. Schieber, R. Galvelis, P. Kraus, H. Kruse, R. Di Remigio,
    A. Alenaizan, A. M. James, S. Lehtola, J. P. Misiewicz, M. Scheurer,
    R. A. Shaw, J. B. Schriber, Y. Xie, Z. L. Glick, D. A. Sirianni,
    J. S. O'Brien, J. M. Waldrop, A. Kumar, E. G. Hohenstein,
    B. P. Pritchard, B. R. Brooks, H. F. Schaefer III, A. Yu. Sokolov,
    K. Patkowski, A. E. DePrince III, U. Bozkaya, R. A. King,
    F. A. Evangelista, J. M. Turney, T. D. Crawford, C. D. Sherrill,
    J. Chem. Phys. 152(18) 184108 (2020). https://doi.org/10.1063/5.0006002

                            Additional Code Authors
    E. T. Seidl, C. L. Janssen, E. F. Valeev, M. L. Leininger,
    J. F. Gonthier, R. M. Richard, H. R. McAlexander, M. Saitow, X. Wang,
    P. Verma, M. H. Lechner, and A. Jiang

             Previous Authors, Complete List of Code Contributors,
                       and Citations for Specific Modules
    https://github.com/psi4/psi4/blob/master/codemeta.json
    https://github.com/psi4/psi4/graphs/contributors
    http://psicode.org/psi4manual/master/introduction.html#citing-psifour

    -----------------------------------------------------------------------


    Psi4 started on: Monday, 03 October 2022 02:21AM

    Process ID: 12
    Host:       chemcompute-node-0.novalocal
    PSIDATADIR: /usr/local/share/psi4
    Memory:     500.0 MiB
    Threads:    1
    
  ==> Input File <==

--------------------------------------------------------------------------
#
#   Psi4 Calculation input file
#   
#
memory 2000 mb

molecule {
 no_com
 0 1
 C      -1.829     0.113     0.485
 C      -0.457     0.585     0.068
 C       0.600    -0.430    -0.085
 C      -0.261     1.898    -0.167
 C       0.180    -1.864    -0.298
 C       1.917    -0.144    -0.020
 H      -2.317    -0.432    -0.327
 H      -2.489     0.947     0.755
 H      -1.776    -0.535     1.361
 H       0.688     2.300    -0.493
 H      -1.062     2.615    -0.052
 H      -0.277    -2.277     0.610
 H       1.022    -2.511    -0.554
 H      -0.541    -1.947    -1.119
 H       2.667    -0.916    -0.129
 H       2.291     0.855     0.156
symmetry c1
}
set {
 basis 6-31G*
 geom_maxiter 200
 reference RHF
 WRITER_FILE_LABEL Psi4
 NORMAL_MODES_WRITE true
}
E, wfn = optimize('B3LYP', return_wfn=True)
wfn.write_molden('Psi4.molden')
oeprop(wfn, 'DIPOLE', 'QUADRUPOLE', 'MULTIPOLE(4)', 'MO_EXTENTS', 'MULLIKEN_CHARGES', 'LOWDIN_CHARGES', 'WIBERG_LOWDIN_INDICES', 'MAYER_INDICES', 'NO_OCCUPATIONS')
print_variables()
scf_e, scf_wfn = frequencies('B3LYP', return_wfn=True, dertype=1)

--------------------------------------------------------------------------

  Memory set to   1.863 GiB by Python driver.

Scratch directory: /scratch/
gradient() will perform analytic gradient computation.

*** tstart() called on chemcompute-node-0.novalocal
*** at Mon Oct  3 02:21:04 2022

   => Loading Basis Set <=

    Name: 6-31G*
    Role: ORBITAL
    Keyword: BASIS
    atoms 1-6  entry C          line   111 file /usr/local/share/psi4/basis/6-31gs.gbs 
    atoms 7-16 entry H          line    44 file /usr/local/share/psi4/basis/6-31gs.gbs 


         ---------------------------------------------------------
                                   SCF
               by Justin Turney, Rob Parrish, Andy Simmonett
                          and Daniel G. A. Smith
                              RKS Reference
                        1 Threads,   1907 MiB Core
         ---------------------------------------------------------

  ==> Geometry <==

    Molecular point group: c1
    Full point group: C1

    Geometry (in Angstrom), charge = 0, multiplicity = 1:

       Center              X                  Y                   Z               Mass       
    ------------   -----------------  -----------------  -----------------  -----------------
         C           -1.829000000000     0.113000000000     0.485000000000    12.000000000000
         C           -0.457000000000     0.585000000000     0.068000000000    12.000000000000
         C            0.600000000000    -0.430000000000    -0.085000000000    12.000000000000
         C           -0.261000000000     1.898000000000    -0.167000000000    12.000000000000
         C            0.180000000000    -1.864000000000    -0.298000000000    12.000000000000
         C            1.917000000000    -0.144000000000    -0.020000000000    12.000000000000
         H           -2.317000000000    -0.432000000000    -0.327000000000     1.007825032230
         H           -2.489000000000     0.947000000000     0.755000000000     1.007825032230
         H           -1.776000000000    -0.535000000000     1.361000000000     1.007825032230
         H            0.688000000000     2.300000000000    -0.493000000000     1.007825032230
         H           -1.062000000000     2.615000000000    -0.052000000000     1.007825032230
         H           -0.277000000000    -2.277000000000     0.610000000000     1.007825032230
         H            1.022000000000    -2.511000000000    -0.554000000000     1.007825032230
         H           -0.541000000000    -1.947000000000    -1.119000000000     1.007825032230
         H            2.667000000000    -0.916000000000    -0.129000000000     1.007825032230
         H            2.291000000000     0.855000000000     0.156000000000     1.007825032230

  Running in c1 symmetry.

  Rotational constants: A =      0.16089  B =      0.10802  C =      0.06821 [cm^-1]
  Rotational constants: A =   4823.37338  B =   3238.28993  C =   2044.83688 [MHz]
  Nuclear repulsion =  224.842516998143424

  Charge       = 0
  Multiplicity = 1
  Electrons    = 46
  Nalpha       = 23
  Nbeta        = 23

  ==> Algorithm <==

  SCF Algorithm Type is DF.
  DIIS enabled.
  MOM disabled.
  Fractional occupation disabled.
  Guess Type is SAD.
  Energy threshold   = 1.00e-08
  Density threshold  = 1.00e-08
  Integral threshold = 1.00e-12

  ==> Primary Basis <==

  Basis Set: 6-31G*
    Blend: 6-31G*
    Number of shells: 56
    Number of basis functions: 110
    Number of Cartesian functions: 110
    Spherical Harmonics?: false
    Max angular momentum: 2

  ==> DFT Potential <==

   => LibXC <=

    Version 5.1.5
    S. Lehtola, C. Steigemann, M. J. Oliveira, and M. A. Marques, SoftwareX 7, 1 (2018) (10.1016/j.softx.2017.11.002)

   => Composite Functional: B3LYP <= 

    B3LYP Hyb-GGA Exchange-Correlation Functional

    P. J. Stephens, F. J. Devlin, C. F. Chabalowski, and M. J. Frisch, J. Phys. Chem. 98, 11623 (1994) (10.1021/j100096a001)

    Deriv               =              1
    GGA                 =           TRUE
    Meta                =          FALSE

    Exchange Hybrid     =           TRUE
    MP2 Hybrid          =          FALSE

   => Exchange Functionals <=

    0.0800   Slater exchange
    0.7200         Becke 88

   => Exact (HF) Exchange <=

    0.2000               HF 

   => Correlation Functionals <=

    0.1900   Vosko, Wilk & Nusair (VWN5_RPA)
    0.8100   Lee, Yang & Parr

   => LibXC Density Thresholds  <==

    XC_HYB_GGA_XC_B3LYP:  1.00E-15 

   => Molecular Quadrature <=

    Radial Scheme          =       TREUTLER
    Pruning Scheme         =           NONE
    Nuclear Scheme         =       TREUTLER

    BS radius alpha        =              1
    Pruning alpha          =              1
    Radial Points          =             75
    Spherical Points       =            302
    Total Points           =         337529
    Total Blocks           =           2503
    Max Points             =            256
    Max Functions          =            108
    Weights Tolerance      =       1.00E-15

   => Loading Basis Set <=

    Name: (6-31G* AUX)
    Role: JKFIT
    Keyword: DF_BASIS_SCF
    atoms 1-6  entry C          line   121 file /usr/local/share/psi4/basis/cc-pvdz-jkfit.gbs 
    atoms 7-16 entry H          line    51 file /usr/local/share/psi4/basis/cc-pvdz-jkfit.gbs 

  ==> Integral Setup <==

  DFHelper Memory: AOs need 0.073 GiB; user supplied 0.539 GiB. Using in-core AOs.

  ==> MemDFJK: Density-Fitted J/K Matrices <==

    J tasked:                   Yes
    K tasked:                   Yes
    wK tasked:                   No
    OpenMP threads:               1
    Memory [MiB]:               551
    Algorithm:                 Core
    Schwarz Cutoff:           1E-12
    Mask sparsity (%):       0.8926
    Fitting Condition:        1E-10

   => Auxiliary Basis Set <=

  Basis Set: (6-31G* AUX)
    Blend: CC-PVDZ-JKFIT
    Number of shells: 234
    Number of basis functions: 736
    Number of Cartesian functions: 736
    Spherical Harmonics?: false
    Max angular momentum: 3

  Cached 100.0% of DFT collocation blocks in 0.858 [GiB].

  Minimum eigenvalue in the overlap matrix is 2.3090934937E-03.
  Reciprocal condition number of the overlap matrix is 3.1570705901E-04.
    Using symmetric orthogonalization.

  ==> Pre-Iterations <==

  SCF Guess: Superposition of Atomic Densities via on-the-fly atomic UHF (no occupation information).

   -------------------------
    Irrep   Nso     Nmo    
   -------------------------
     A        110     110 
   -------------------------
    Total     110     110
   -------------------------

  ==> Iterations <==

                           Total Energy        Delta E     RMS |[F,P]|

   @DF-RKS iter SAD:  -233.74590037966971   -2.33746e+02   0.00000e+00 
   @DF-RKS iter   1:  -234.16291849764096   -4.17018e-01   8.29765e-03 DIIS
   @DF-RKS iter   2:  -234.09136798218773    7.15505e-02   8.76191e-03 DIIS
   @DF-RKS iter   3:  -234.61134556039536   -5.19978e-01   1.15143e-03 DIIS
   @DF-RKS iter   4:  -234.61742859861218   -6.08304e-03   6.33439e-04 DIIS
   @DF-RKS iter   5:  -234.61989366085533   -2.46506e-03   3.63657e-05 DIIS
   @DF-RKS iter   6:  -234.61990044760014   -6.78674e-06   9.25406e-06 DIIS
   @DF-RKS iter   7:  -234.61990088807562   -4.40475e-07   4.27250e-06 DIIS
   @DF-RKS iter   8:  -234.61990099346630   -1.05391e-07   1.01680e-06 DIIS
   @DF-RKS iter   9:  -234.61990099851485   -5.04855e-09   5.34930e-07 DIIS
   @DF-RKS iter  10:  -234.61990100041155   -1.89669e-09   4.02283e-08 DIIS
   @DF-RKS iter  11:  -234.61990100042098   -9.43601e-12   8.80562e-09 DIIS
  Energy and wave function converged.


  ==> Post-Iterations <==

   Electrons on quadrature grid:
      Ntotal   =   45.9999765426 ; deviation = -2.346e-05 

    Orbital Energies [Eh]
    ---------------------

    Doubly Occupied:                                                      

       1A    -10.194321     2A    -10.194010     3A    -10.179325  
       4A    -10.178984     5A    -10.171384     6A    -10.171309  
       7A     -0.823207     8A     -0.751572     9A     -0.695155  
      10A     -0.664146    11A     -0.592581    12A     -0.496693  
      13A     -0.472439    14A     -0.444121    15A     -0.431501  
      16A     -0.407834    17A     -0.401283    18A     -0.382862  
      19A     -0.371823    20A     -0.341779    21A     -0.337803  
      22A     -0.286246    23A     -0.215966  

    Virtual:                                                              

      24A     -0.017839    25A      0.080068    26A      0.095487  
      27A      0.130177    28A      0.135607    29A      0.141706  
      30A      0.144006    31A      0.169620    32A      0.174196  
      33A      0.205956    34A      0.222035    35A      0.248830  
      36A      0.261097    37A      0.261739    38A      0.340199  
      39A      0.375780    40A      0.431488    41A      0.486930  
      42A      0.516362    43A      0.526957    44A      0.551350  
      45A      0.556246    46A      0.582319    47A      0.621502  
      48A      0.640054    49A      0.674098    50A      0.675401  
      51A      0.685054    52A      0.688826    53A      0.737130  
      54A      0.786930    55A      0.789017    56A      0.811309  
      57A      0.840192    58A      0.860086    59A      0.873190  
      60A      0.903448    61A      0.915123    62A      0.934503  
      63A      0.948151    64A      0.973004    65A      0.985164  
      66A      1.003944    67A      1.025836    68A      1.128439  
      69A      1.144111    70A      1.174759    71A      1.204618  
      72A      1.266950    73A      1.334183    74A      1.418869  
      75A      1.431240    76A      1.484612    77A      1.651593  
      78A      1.666252    79A      1.725760    80A      1.731964  
      81A      1.841299    82A      1.869370    83A      1.919191  
      84A      1.949358    85A      1.958964    86A      1.975401  
      87A      2.036698    88A      2.139381    89A      2.146756  
      90A      2.210522    91A      2.218376    92A      2.283127  
      93A      2.308467    94A      2.328816    95A      2.340631  
      96A      2.421705    97A      2.425328    98A      2.461267  
      99A      2.517887   100A      2.655054   101A      2.683968  
     102A      2.720183   103A      2.982218   104A      3.116796  
     105A      4.090494   106A      4.146687   107A      4.185090  
     108A      4.280085   109A      4.318182   110A      4.591486  

    Final Occupation by Irrep:
              A 
    DOCC [    23 ]

  @DF-RKS Final Energy:  -234.61990100042098

   => Energetics <=

    Nuclear Repulsion Energy =            224.8425169981434237
    One-Electron Energy =                -759.4124671567004725
    Two-Electron Energy =                 329.2891917022198527
    DFT Exchange-Correlation Energy =     -29.3391425440837885
    Empirical Dispersion Energy =           0.0000000000000000
    VV10 Nonlocal Energy =                  0.0000000000000000
    Total Energy =                       -234.6199010004209811

Computation Completed


Properties will be evaluated at   0.000000,   0.000000,   0.000000 [a0]

Properties computed using the SCF density matrix

  Nuclear Dipole Moment: [e a0]
     X:    -1.6894      Y:    -1.8009      Z:     0.2003

  Electronic Dipole Moment: [e a0]
     X:     1.5225      Y:     1.6252      Z:    -0.1819

  Dipole Moment: [e a0]
     X:    -0.1669      Y:    -0.1757      Z:     0.0185     Total:     0.2430

  Dipole Moment: [D]
     X:    -0.4242      Y:    -0.4466      Z:     0.0469     Total:     0.6177


*** tstop() called on chemcompute-node-0.novalocal at Mon Oct  3 02:21:20 2022
Module time:
	user time   =      15.21 seconds =       0.25 minutes
	system time =       0.79 seconds =       0.01 minutes
	total time  =         16 seconds =       0.27 minutes
Total time:
	user time   =      15.21 seconds =       0.25 minutes
	system time =       0.79 seconds =       0.01 minutes
	total time  =         16 seconds =       0.27 minutes

*** tstart() called on chemcompute-node-0.novalocal
*** at Mon Oct  3 02:21:20 2022


         ------------------------------------------------------------
                                   SCF GRAD                          
                          Rob Parrish, Justin Turney,                
                       Andy Simmonett, and Alex Sokolov              
         ------------------------------------------------------------

  ==> Geometry <==

    Molecular point group: c1
    Full point group: C1

    Geometry (in Angstrom), charge = 0, multiplicity = 1:

       Center              X                  Y                   Z               Mass       
    ------------   -----------------  -----------------  -----------------  -----------------
         C           -1.829000000000     0.113000000000     0.485000000000    12.000000000000
         C           -0.457000000000     0.585000000000     0.068000000000    12.000000000000
         C            0.600000000000    -0.430000000000    -0.085000000000    12.000000000000
         C           -0.261000000000     1.898000000000    -0.167000000000    12.000000000000
         C            0.180000000000    -1.864000000000    -0.298000000000    12.000000000000
         C            1.917000000000    -0.144000000000    -0.020000000000    12.000000000000
         H           -2.317000000000    -0.432000000000    -0.327000000000     1.007825032230
         H           -2.489000000000     0.947000000000     0.755000000000     1.007825032230
         H           -1.776000000000    -0.535000000000     1.361000000000     1.007825032230
         H            0.688000000000     2.300000000000    -0.493000000000     1.007825032230
         H           -1.062000000000     2.615000000000    -0.052000000000     1.007825032230
         H           -0.277000000000    -2.277000000000     0.610000000000     1.007825032230
         H            1.022000000000    -2.511000000000    -0.554000000000     1.007825032230
         H           -0.541000000000    -1.947000000000    -1.119000000000     1.007825032230
         H            2.667000000000    -0.916000000000    -0.129000000000     1.007825032230
         H            2.291000000000     0.855000000000     0.156000000000     1.007825032230

  Nuclear repulsion =  224.842516998143424

  ==> Basis Set <==

  Basis Set: 6-31G*
    Blend: 6-31G*
    Number of shells: 56
    Number of basis functions: 110
    Number of Cartesian functions: 110
    Spherical Harmonics?: false
    Max angular momentum: 2

  ==> DFJKGrad: Density-Fitted SCF Gradients <==

    Gradient:                    1
    J tasked:                  Yes
    K tasked:                  Yes
    wK tasked:                  No
    OpenMP threads:              1
    Integrals threads:           1
    Memory [MiB]:             1430
    Schwarz Cutoff:          1E-12
    Fitting Condition:       1E-10

   => Auxiliary Basis Set <=

  Basis Set: (6-31G* AUX)
    Blend: CC-PVDZ-JKFIT
    Number of shells: 234
    Number of basis functions: 736
    Number of Cartesian functions: 736
    Spherical Harmonics?: false
    Max angular momentum: 3

  ==> DFT Potential <==

   => LibXC <=

    Version 5.1.5
    S. Lehtola, C. Steigemann, M. J. Oliveira, and M. A. Marques, SoftwareX 7, 1 (2018) (10.1016/j.softx.2017.11.002)

   => Composite Functional: B3LYP <= 

    B3LYP Hyb-GGA Exchange-Correlation Functional

    P. J. Stephens, F. J. Devlin, C. F. Chabalowski, and M. J. Frisch, J. Phys. Chem. 98, 11623 (1994) (10.1021/j100096a001)

    Deriv               =              1
    GGA                 =           TRUE
    Meta                =          FALSE

    Exchange Hybrid     =           TRUE
    MP2 Hybrid          =          FALSE

   => Exchange Functionals <=

    0.0800   Slater exchange
    0.7200         Becke 88

   => Exact (HF) Exchange <=

    0.2000               HF 

   => Correlation Functionals <=

    0.1900   Vosko, Wilk & Nusair (VWN5_RPA)
    0.8100   Lee, Yang & Parr

   => LibXC Density Thresholds  <==

    XC_HYB_GGA_XC_B3LYP:  1.00E-15 

   => Molecular Quadrature <=

    Radial Scheme          =       TREUTLER
    Pruning Scheme         =           NONE
    Nuclear Scheme         =       TREUTLER

    BS radius alpha        =              1
    Pruning alpha          =              1
    Radial Points          =             75
    Spherical Points       =            302
    Total Points           =         337529
    Total Blocks           =           2503
    Max Points             =            256
    Max Functions          =            108
    Weights Tolerance      =       1.00E-15


  -Total Gradient:
     Atom            X                  Y                   Z
    ------   -----------------  -----------------  -----------------
       1        0.003301897819    -0.004183789080    -0.001783480272
       2        0.005271978845    -0.016605973924     0.000241539208
       3       -0.019176779779     0.004800243023     0.000901647481
       4       -0.000932046528     0.007709929508    -0.000430342494
       5        0.002562619651     0.002531313203     0.000655269411
       6        0.008400153318    -0.000693016747    -0.000282507969
       7        0.001853969813     0.004467537514    -0.000066277999
       8       -0.002971558041    -0.000532563494     0.002312358305
       9        0.000868223053     0.004766833890    -0.001306062381
      10       -0.003200295414    -0.000080927516     0.002542416470
      11        0.002878896045    -0.001921604501    -0.001975139897
      12        0.003059795049     0.001010854957     0.001639784107
      13       -0.002972557853    -0.001769192975    -0.000807209670
      14        0.002746672696     0.001224189237    -0.001269501598
      15       -0.001461440151     0.002648664499     0.001721328050
      16       -0.000235574654    -0.003374080315    -0.002094830972


*** tstop() called on chemcompute-node-0.novalocal at Mon Oct  3 02:21:24 2022
Module time:
	user time   =       3.60 seconds =       0.06 minutes
	system time =       0.08 seconds =       0.00 minutes
	total time  =          4 seconds =       0.07 minutes
Total time:
	user time   =      18.81 seconds =       0.31 minutes
	system time =       0.87 seconds =       0.01 minutes
	total time  =         20 seconds =       0.33 minutes

			-----------------------------------------
			 OPTKING 2.0: for geometry optimizations 
			  - R.A. King,  Bethel University        
			-----------------------------------------

	Internal coordinates to be generated automatically.
	Detected frag 1 with atoms:  1 2 3 4 5 6 7 8 9 10 11 12 13 14 15 16
	---Fragment 1 Bond Connectivity---
	 1 : 2 7 8 9
	 2 : 1 3 4
	 3 : 2 5 6
	 4 : 2 10 11
	 5 : 3 12 13 14
	 6 : 3 15 16
	 7 : 1
	 8 : 1
	 9 : 1
	 10 : 4
	 11 : 4
	 12 : 5
	 13 : 5
	 14 : 5
	 15 : 6
	 16 : 6

	---Fragment 1 Geometry and Gradient---
	 C          -3.4563090835        0.2135390522        0.9165171708
	 C          -0.8636048393        1.1054897834        0.1285013765
	 C           1.1338356753       -0.8125822339       -0.1606267207
	 C          -0.4932185187        3.5867001861       -0.3155842630
	 C           0.3401507026       -3.5224494979       -0.5631383854
	 C           3.6226049825       -0.2721205621       -0.0377945225
	 H          -4.3784954327       -0.8163616862       -0.6179404430
	 H          -4.7035283263        1.7895706408        1.4267432247
	 H          -3.3561535988       -1.0110034771        2.5719172567
	 H           1.3001315743        4.3463700886       -0.9316349799
	 H          -2.0068891452        4.9416338181       -0.0982657585
	 H          -0.5234541368       -4.3029063877        1.1527329365
	 H           1.9313001002       -4.7451023010       -1.0469082735
	 H          -1.0223418339       -3.6792967663       -2.1146035344
	 H           5.0398995766       -1.7309891309       -0.2437746702
	 H           4.3293625534        1.6157158373        0.2947972756
	             0.0033018978       -0.0041837891       -0.0017834803
	             0.0052719788       -0.0166059739        0.0002415392
	            -0.0191767798        0.0048002430        0.0009016475
	            -0.0009320465        0.0077099295       -0.0004303425
	             0.0025626197        0.0025313132        0.0006552694
	             0.0084001533       -0.0006930167       -0.0002825080
	             0.0018539698        0.0044675375       -0.0000662780
	            -0.0029715580       -0.0005325635        0.0023123583
	             0.0008682231        0.0047668339       -0.0013060624
	            -0.0032002954       -0.0000809275        0.0025424165
	             0.0028788960       -0.0019216045       -0.0019751399
	             0.0030597950        0.0010108550        0.0016397841
	            -0.0029725579       -0.0017691930       -0.0008072097
	             0.0027466727        0.0012241892       -0.0012695016
	            -0.0014614402        0.0026486645        0.0017213280
	            -0.0002355747       -0.0033740803       -0.0020948310

	Previous optimization step data not found.  Starting new optimization.

	---Fragment 1 Intrafragment Coordinates---
	 - Coordinate -           - BOHR/RAD -       - ANG/DEG -
	 R(1,2)           =         2.852834	       1.509655
	 R(1,7)           =         2.065353	       1.092938
	 R(1,8)           =         2.073587	       1.097295
	 R(1,9)           =         2.061525	       1.090912
	 R(2,3)           =         2.784307	       1.473392
	 R(2,4)           =         2.547705	       1.348188
	 R(3,5)           =         2.852250	       1.509346
	 R(3,6)           =         2.549737	       1.349263
	 R(4,10)          =         2.042724	       1.080963
	 R(4,11)          =         2.043103	       1.081164
	 R(5,12)          =         2.073437	       1.097216
	 R(5,13)          =         2.064139	       1.092295
	 R(5,14)          =         2.070756	       1.095797
	 R(6,15)          =         2.044370	       1.081834
	 R(6,16)          =         2.043049	       1.081135
	 B(1,2,3)         =         2.054746	     117.728254
	 B(1,2,4)         =         2.076892	     118.997138
	 B(2,1,7)         =         1.935291	     110.883983
	 B(2,1,8)         =         1.957317	     112.146031
	 B(2,1,9)         =         1.942678	     111.307223
	 B(2,3,5)         =         2.059550	     118.003533
	 B(2,3,6)         =         2.152220	     123.313130
	 B(2,4,10)        =         2.144070	     122.846149
	 B(2,4,11)        =         2.117199	     121.306575
	 B(3,2,4)         =         2.151379	     123.264959
	 B(3,5,12)        =         1.935565	     110.899708
	 B(3,5,13)        =         1.962035	     112.416307
	 B(3,5,14)        =         1.939905	     111.148394
	 B(3,6,15)        =         2.118321	     121.370870
	 B(3,6,16)        =         2.142859	     122.776785
	 B(5,3,6)         =         2.071220	     118.672157
	 B(7,1,8)         =         1.868423	     107.052759
	 B(7,1,9)         =         1.898722	     108.788779
	 B(8,1,9)         =         1.857827	     106.445636
	 B(10,4,11)       =         2.021805	     115.840917
	 B(12,5,13)       =         1.867178	     106.981422
	 B(12,5,14)       =         1.893848	     108.509474
	 B(13,5,14)       =         1.861615	     106.662694
	 B(15,6,16)       =         2.021910	     115.846906
	 D(1,2,3,5)       =         0.367232	      21.040815
	 D(1,2,3,6)       =        -2.752820	    -157.724958
	 D(1,2,4,10)      =        -3.113124	    -178.368845
	 D(1,2,4,11)      =         0.011787	       0.675341
	 D(2,3,5,12)      =        -1.207734	     -69.198069
	 D(2,3,5,13)      =         2.986012	     171.085872
	 D(2,3,5,14)      =         0.900663	      51.604167
	 D(2,3,6,15)      =         3.132939	     179.504190
	 D(2,3,6,16)      =         0.006774	       0.388098
	 D(3,2,1,7)       =        -1.243067	     -71.222502
	 D(3,2,1,8)       =         2.952456	     169.163269
	 D(3,2,1,9)       =         0.873214	      50.031480
	 D(3,2,4,10)      =         0.008279	       0.474333
	 D(3,2,4,11)      =         3.133189	     179.518518
	 D(4,2,1,7)       =         1.879453	     107.684749
	 D(4,2,1,8)       =        -0.208209	     -11.929480
	 D(4,2,1,9)       =        -2.287451	    -131.061269
	 D(4,2,3,5)       =        -2.754411	    -157.816113
	 D(4,2,3,6)       =         0.408723	      23.418114
	 D(5,3,6,15)      =         0.013024	       0.746210
	 D(5,3,6,16)      =        -3.113142	    -178.369882
	 D(6,3,5,12)      =         1.913341	     109.626370
	 D(6,3,5,13)      =        -0.176098	     -10.089688
	 D(6,3,5,14)      =        -2.261447	    -129.571394

	Current energy   :      -234.6199010004

	Generating empirical Hessian (Schlegel '84) for each fragment.
	Taking RFO optimization step.
	Going to follow RFO solution 1.
	Using RFO vector 1.
	Norm of target step-size    0.35946
	Projected energy change by RFO approximation:        -0.0033134842

	Back-transformation to cartesian coordinates...
	Could not converge backtransformation.
	Using first guess instead.

	--- Internal Coordinate Step in ANG or DEG, aJ/ANG or AJ/DEG ---
	 ---------------------------------------------------------------------------
	   Coordinate                Previous        Force       Change         New 
	   ----------                --------       ------       ------       ------
	    1 R(1,2)          =      1.509655     0.036425     0.009392     1.519046
	    2 R(1,7)          =      1.092938     0.024764     0.013109     1.106047
	    3 R(1,8)          =      1.097295    -0.016076     0.000859     1.098154
	    4 R(1,9)          =      1.090912     0.031626     0.011018     1.101930
	    5 R(2,3)          =      1.473392     0.078415     0.014129     1.487521
	    6 R(2,4)          =      1.348188    -0.044101    -0.003060     1.345128
	    7 R(3,5)          =      1.509346     0.036097     0.009633     1.518979
	    8 R(3,6)          =      1.349263    -0.051180    -0.004083     1.345180
	    9 R(4,10)         =      1.080963     0.029709     0.010256     1.091219
	   10 R(4,11)         =      1.081164     0.029804     0.006022     1.087186
	   11 R(5,12)         =      1.097216     0.002450     0.007419     1.104635
	   12 R(5,13)         =      1.092295     0.008683     0.003866     1.096161
	   13 R(5,14)         =      1.095797     0.007827     0.005401     1.101198
	   14 R(6,15)         =      1.081834     0.025349     0.005271     1.087105
	   15 R(6,16)         =      1.081135     0.029162     0.010063     1.091198
	   16 B(1,2,3)        =    117.728254    -0.000025    -0.120182   117.608072
	   17 B(1,2,4)        =    118.997138     0.000252     0.842258   119.839396
	   18 B(2,1,7)        =    110.883983     0.000226     0.844845   111.728828
	   19 B(2,1,8)        =    112.146031    -0.000340    -1.689062   110.456970
	   20 B(2,1,9)        =    111.307223     0.000146     0.698238   112.005461
	   21 B(2,3,5)        =    118.003533    -0.000100    -0.348759   117.654774
	   22 B(2,3,6)        =    123.313130    -0.000238    -0.750393   122.562738
	   23 B(2,4,10)       =    122.846149    -0.000073    -0.201337   122.644813
	   24 B(2,4,11)       =    121.306575    -0.000034    -0.360822   120.945753
	   25 B(3,2,4)        =    123.264959    -0.000227    -0.725442   122.539517
	   26 B(3,5,12)       =    110.899708     0.000227     0.964470   111.864178
	   27 B(3,5,13)       =    112.416307    -0.000378    -1.825817   110.590490
	   28 B(3,5,14)       =    111.148394     0.000172     0.800275   111.948669
	   29 B(3,6,15)       =    121.370870    -0.000046    -0.409768   120.961102
	   30 B(3,6,16)       =    122.776785    -0.000058    -0.143384   122.633401
	   31 B(5,3,6)        =    118.672157     0.000339     1.103105   119.775262
	   32 B(7,1,8)        =    107.052759     0.000077     0.726630   107.779390
	   33 B(7,1,9)        =    108.788779    -0.000291    -1.730182   107.058597
	   34 B(8,1,9)        =    106.445636     0.000173     1.154527   107.600163
	   35 B(10,4,11)      =    115.840917     0.000106     0.559012   116.399930
	   36 B(12,5,13)      =    106.981422     0.000097     0.764796   107.746219
	   37 B(12,5,14)      =    108.509474    -0.000286    -1.640787   106.868686
	   38 B(13,5,14)      =    106.662694     0.000159     0.935159   107.597854
	   39 B(15,6,16)      =    115.846906     0.000103     0.548953   116.395858
	   40 D(1,2,3,5)      =     21.040815     0.000026     7.016650    28.057466
	   41 D(1,2,3,6)      =   -157.724958     0.000024     6.763614  -150.961344
	   42 D(1,2,4,10)     =   -178.368845     0.000024     2.796171  -175.572674
	   43 D(1,2,4,11)     =      0.675341     0.000022     2.589697     3.265038
	   44 D(2,3,5,12)     =    -69.198069     0.000015     3.228034   -65.970036
	   45 D(2,3,5,13)     =    171.085872     0.000009     2.838874   173.924746
	   46 D(2,3,5,14)     =     51.604167    -0.000006     2.347064    53.951231
	   47 D(2,3,6,15)     =    179.504190     0.000020     2.463516   181.967706
	   48 D(2,3,6,16)     =      0.388098     0.000023     2.750062     3.138160
	   49 D(3,2,1,7)      =    -71.222502     0.000020     4.499039   -66.723464
	   50 D(3,2,1,8)      =    169.163269     0.000014     4.146488   173.309757
	   51 D(3,2,1,9)      =     50.031480    -0.000007     3.355080    53.386559
	   52 D(3,2,4,10)     =      0.474333     0.000023     2.608636     3.082969
	   53 D(3,2,4,11)     =    179.518518     0.000021     2.402162   181.920681
	   54 D(4,2,1,7)      =    107.684749     0.000018     4.312855   111.997604
	   55 D(4,2,1,8)      =    -11.929480     0.000013     3.960304    -7.969175
	   56 D(4,2,1,9)      =   -131.061269    -0.000008     3.168896  -127.892373
	   57 D(4,2,3,5)      =   -157.816113     0.000026     7.189539  -150.626574
	   58 D(4,2,3,6)      =     23.418114     0.000024     6.936502    30.354616
	   59 D(5,3,6,15)     =      0.746210     0.000019     2.222788     2.968998
	   60 D(5,3,6,16)     =   -178.369882     0.000022     2.509334  -175.860548
	   61 D(6,3,5,12)     =    109.626370     0.000015     3.450868   113.077238
	   62 D(6,3,5,13)     =    -10.089688     0.000010     3.061708    -7.027980
	   63 D(6,3,5,14)     =   -129.571394    -0.000006     2.569898  -127.001496
	 ---------------------------------------------------------------------------
	Successfully symmetrized geometry.

  ==> Convergence Check <==

  Measures of convergence in internal coordinates in au.
  Criteria marked as inactive (o), active & met (*), and active & unmet ( ).
  --------------------------------------------------------------------------------------------- ~
   Step     Total Energy     Delta E     MAX Force     RMS Force      MAX Disp      RMS Disp    ~
  --------------------------------------------------------------------------------------------- ~
    Convergence Criteria    1.00e-06 *    3.00e-04 *             o    1.20e-03 *             o  ~
  --------------------------------------------------------------------------------------------- ~
      1    -234.61990100   -2.35e+02      9.52e-03      2.73e-03 o    1.25e-01      4.54e-02 o  ~
  ---------------------------------------------------------------------------------------------

	Writing optimization data to binary file.
	Structure for next step:
	Cartesian Geometry (in Angstrom)
	    C    -1.8191435792   0.1231688023   0.5640728762
	    C    -0.4605853468   0.5896885877   0.0699266205
	    C     0.6069894486  -0.4350368951  -0.0815350261
	    C    -0.2686711694   1.8852433418  -0.2367899155
	    C     0.1779107855  -1.8616586283  -0.3780803414
	    C     1.9135483525  -0.1447388474   0.0531456764
	    H    -2.3184108837  -0.5351069880  -0.1712804676
	    H    -2.4775402527   0.9831008675   0.7456561389
	    H    -1.7435831323  -0.4434069101   1.5061623309
	    H     0.6649799191   2.2575276203  -0.6615956616
	    H    -1.0576405233   2.6180617863  -0.0868620674
	    H    -0.3794157101  -2.3073137115   0.4651261557
	    H     1.0515712002  -2.4944212541  -0.5727551343
	    H    -0.4781045174  -1.9191379808  -1.2606765829
	    H     2.6740118620  -0.9074700650  -0.0942794420
	    H     2.2700835534   0.8485002812   0.3307648393
			--------------------------
			 OPTKING Finished Execution 
			--------------------------

    Structure for next step:
    Molecular point group: c1
    Full point group: C1

    Geometry (in Angstrom), charge = 0, multiplicity = 1:

    C           -1.819143586396     0.123168802780     0.564072878375
    C           -0.460585348648     0.589688590037     0.069926620799
    C            0.606989451017    -0.435036896784    -0.081535026399
    C           -0.268671170409     1.885243349206    -0.236789916452
    C            0.177910786242    -1.861658635646    -0.378080342891
    C            1.913548360025    -0.144738847992     0.053145676650
    H           -2.318410892860    -0.535106990055    -0.171280468262
    H           -2.477540262402     0.983100871383     0.745656141877
    H           -1.743583139111    -0.443406911859     1.506162336841
    H            0.664979921673     2.257527629213    -0.661595664166
    H           -1.057640527503     2.618061796607    -0.086862067729
    H           -0.379415711588    -2.307313720617     0.465126157520
    H            1.051571204313    -2.494421263907    -0.572755136581
    H           -0.478104519230    -1.919137988332    -1.260676587848
    H            2.674011872508    -0.907470068539    -0.094279442343
    H            2.270083562367     0.848500284505     0.330764840609


Scratch directory: /scratch/
gradient() will perform analytic gradient computation.

*** tstart() called on chemcompute-node-0.novalocal
*** at Mon Oct  3 02:21:24 2022

   => Loading Basis Set <=

    Name: 6-31G*
    Role: ORBITAL
    Keyword: BASIS
    atoms 1-6  entry C          line   111 file /usr/local/share/psi4/basis/6-31gs.gbs 
    atoms 7-16 entry H          line    44 file /usr/local/share/psi4/basis/6-31gs.gbs 


         ---------------------------------------------------------
                                   SCF
               by Justin Turney, Rob Parrish, Andy Simmonett
                          and Daniel G. A. Smith
                              RKS Reference
                        1 Threads,   1907 MiB Core
         ---------------------------------------------------------

  ==> Geometry <==

    Molecular point group: c1
    Full point group: C1

    Geometry (in Angstrom), charge = 0, multiplicity = 1:

       Center              X                  Y                   Z               Mass       
    ------------   -----------------  -----------------  -----------------  -----------------
         C           -1.819143586396     0.123168802780     0.564072878375    12.000000000000
         C           -0.460585348648     0.589688590037     0.069926620799    12.000000000000
         C            0.606989451017    -0.435036896784    -0.081535026399    12.000000000000
         C           -0.268671170409     1.885243349206    -0.236789916452    12.000000000000
         C            0.177910786242    -1.861658635646    -0.378080342891    12.000000000000
         C            1.913548360025    -0.144738847992     0.053145676650    12.000000000000
         H           -2.318410892860    -0.535106990055    -0.171280468262     1.007825032230
         H           -2.477540262402     0.983100871383     0.745656141877     1.007825032230
         H           -1.743583139111    -0.443406911859     1.506162336841     1.007825032230
         H            0.664979921673     2.257527629213    -0.661595664166     1.007825032230
         H           -1.057640527503     2.618061796607    -0.086862067729     1.007825032230
         H           -0.379415711588    -2.307313720617     0.465126157520     1.007825032230
         H            1.051571204313    -2.494421263907    -0.572755136581     1.007825032230
         H           -0.478104519230    -1.919137988332    -1.260676587848     1.007825032230
         H            2.674011872508    -0.907470068539    -0.094279442343     1.007825032230
         H            2.270083562367     0.848500284505     0.330764840609     1.007825032230

  Running in c1 symmetry.

  Rotational constants: A =      0.15856  B =      0.10620  C =      0.06855 [cm^-1]
  Rotational constants: A =   4753.59585  B =   3183.77980  C =   2054.93518 [MHz]
  Nuclear repulsion =  223.852619644403688

  Charge       = 0
  Multiplicity = 1
  Electrons    = 46
  Nalpha       = 23
  Nbeta        = 23

  ==> Algorithm <==

  SCF Algorithm Type is DF.
  DIIS enabled.
  MOM disabled.
  Fractional occupation disabled.
  Guess Type is READ.
  Energy threshold   = 1.00e-08
  Density threshold  = 1.00e-08
  Integral threshold = 1.00e-12

  ==> Primary Basis <==

  Basis Set: 6-31G*
    Blend: 6-31G*
    Number of shells: 56
    Number of basis functions: 110
    Number of Cartesian functions: 110
    Spherical Harmonics?: false
    Max angular momentum: 2

  ==> DFT Potential <==

   => LibXC <=

    Version 5.1.5
    S. Lehtola, C. Steigemann, M. J. Oliveira, and M. A. Marques, SoftwareX 7, 1 (2018) (10.1016/j.softx.2017.11.002)

   => Composite Functional: B3LYP <= 

    B3LYP Hyb-GGA Exchange-Correlation Functional

    P. J. Stephens, F. J. Devlin, C. F. Chabalowski, and M. J. Frisch, J. Phys. Chem. 98, 11623 (1994) (10.1021/j100096a001)

    Deriv               =              1
    GGA                 =           TRUE
    Meta                =          FALSE

    Exchange Hybrid     =           TRUE
    MP2 Hybrid          =          FALSE

   => Exchange Functionals <=

    0.0800   Slater exchange
    0.7200         Becke 88

   => Exact (HF) Exchange <=

    0.2000               HF 

   => Correlation Functionals <=

    0.1900   Vosko, Wilk & Nusair (VWN5_RPA)
    0.8100   Lee, Yang & Parr

   => LibXC Density Thresholds  <==

    XC_HYB_GGA_XC_B3LYP:  1.00E-15 

   => Molecular Quadrature <=

    Radial Scheme          =       TREUTLER
    Pruning Scheme         =           NONE
    Nuclear Scheme         =       TREUTLER

    BS radius alpha        =              1
    Pruning alpha          =              1
    Radial Points          =             75
    Spherical Points       =            302
    Total Points           =         337779
    Total Blocks           =           2514
    Max Points             =            256
    Max Functions          =            108
    Weights Tolerance      =       1.00E-15

   => Loading Basis Set <=

    Name: (6-31G* AUX)
    Role: JKFIT
    Keyword: DF_BASIS_SCF
    atoms 1-6  entry C          line   121 file /usr/local/share/psi4/basis/cc-pvdz-jkfit.gbs 
    atoms 7-16 entry H          line    51 file /usr/local/share/psi4/basis/cc-pvdz-jkfit.gbs 

   => Loading Basis Set <=

    Name: 6-31G*
    Role: ORBITAL
    Keyword: BASIS
    atoms 1-6  entry C          line   111 file /usr/local/share/psi4/basis/6-31gs.gbs 
    atoms 7-16 entry H          line    44 file /usr/local/share/psi4/basis/6-31gs.gbs 

  Reading orbitals from file /scratch/Psi4.12.180.npy, no projection.

  ==> Integral Setup <==

  DFHelper Memory: AOs need 0.073 GiB; user supplied 0.540 GiB. Using in-core AOs.

  ==> MemDFJK: Density-Fitted J/K Matrices <==

    J tasked:                   Yes
    K tasked:                   Yes
    wK tasked:                   No
    OpenMP threads:               1
    Memory [MiB]:               552
    Algorithm:                 Core
    Schwarz Cutoff:           1E-12
    Mask sparsity (%):       0.8926
    Fitting Condition:        1E-10

   => Auxiliary Basis Set <=

  Basis Set: (6-31G* AUX)
    Blend: CC-PVDZ-JKFIT
    Number of shells: 234
    Number of basis functions: 736
    Number of Cartesian functions: 736
    Spherical Harmonics?: false
    Max angular momentum: 3

  Cached 100.0% of DFT collocation blocks in 0.857 [GiB].

  Minimum eigenvalue in the overlap matrix is 2.6223907245E-03.
  Reciprocal condition number of the overlap matrix is 3.6106781891E-04.
    Using symmetric orthogonalization.

  ==> Pre-Iterations <==

  SCF Guess: Orbitals guess was supplied from a previous computation.

   -------------------------------------------------------
    Irrep   Nso     Nmo     Nalpha   Nbeta   Ndocc  Nsocc
   -------------------------------------------------------
     A        110     110      23      23      23       0
   -------------------------------------------------------
    Total     110     110      23      23      23       0
   -------------------------------------------------------

  ==> Iterations <==

                           Total Energy        Delta E     RMS |[F,P]|

   @DF-RKS iter   0:  -234.57797414562799   -2.34578e+02   1.37386e-03 
   @DF-RKS iter   1:  -234.62138276702660   -4.34086e-02   2.04155e-04 DIIS
   @DF-RKS iter   2:  -234.62095081720415    4.31950e-04   3.56003e-04 DIIS
   @DF-RKS iter   3:  -234.62176267494232   -8.11858e-04   4.49649e-05 DIIS
   @DF-RKS iter   4:  -234.62177365410244   -1.09792e-05   1.86234e-05 DIIS
   @DF-RKS iter   5:  -234.62177590805103   -2.25395e-06   3.07997e-06 DIIS
   @DF-RKS iter   6:  -234.62177597055958   -6.25085e-08   8.15521e-07 DIIS
   @DF-RKS iter   7:  -234.62177597387333   -3.31374e-09   4.52945e-07 DIIS
   @DF-RKS iter   8:  -234.62177597520872   -1.33539e-09   1.19289e-07 DIIS
   @DF-RKS iter   9:  -234.62177597529100   -8.22808e-11   4.62406e-08 DIIS
   @DF-RKS iter  10:  -234.62177597530419   -1.31877e-11   4.10177e-09 DIIS
  Energy and wave function converged.


  ==> Post-Iterations <==

   Electrons on quadrature grid:
      Ntotal   =   45.9999906789 ; deviation = -9.321e-06 

    Orbital Energies [Eh]
    ---------------------

    Doubly Occupied:                                                      

       1A    -10.195595     2A    -10.195308     3A    -10.182646  
       4A    -10.182180     5A    -10.173388     6A    -10.173336  
       7A     -0.820385     8A     -0.750143     9A     -0.693033  
      10A     -0.664396    11A     -0.588555    12A     -0.495415  
      13A     -0.470987    14A     -0.441082    15A     -0.425663  
      16A     -0.409813    17A     -0.398765    18A     -0.382366  
      19A     -0.373694    20A     -0.346458    21A     -0.332723  
      22A     -0.281859    23A     -0.220429  

    Virtual:                                                              

      24A     -0.013651    25A      0.073197    26A      0.094422  
      27A      0.130849    28A      0.133451    29A      0.144614  
      30A      0.146006    31A      0.166490    32A      0.170176  
      33A      0.195949    34A      0.216966    35A      0.233533  
      36A      0.254347    37A      0.260031    38A      0.343856  
      39A      0.371018    40A      0.415944    41A      0.491198  
      42A      0.524554    43A      0.525448    44A      0.547132  
      45A      0.553363    46A      0.582868    47A      0.625636  
      48A      0.642027    49A      0.671040    50A      0.674203  
      51A      0.686489    52A      0.700109    53A      0.732633  
      54A      0.751477    55A      0.784429    56A      0.812671  
      57A      0.835962    58A      0.859630    59A      0.862529  
      60A      0.900075    61A      0.901427    62A      0.926318  
      63A      0.944699    64A      0.965671    65A      0.967911  
      66A      1.008055    67A      1.018890    68A      1.100611  
      69A      1.153897    70A      1.170138    71A      1.210940  
      72A      1.211963    73A      1.345366    74A      1.415787  
      75A      1.431060    76A      1.483779    77A      1.630815  
      78A      1.668435    79A      1.720075    80A      1.723989  
      81A      1.829984    82A      1.870804    83A      1.906933  
      84A      1.951373    85A      1.963112    86A      1.977718  
      87A      2.010722    88A      2.114662    89A      2.144622  
      90A      2.195763    91A      2.219441    92A      2.274280  
      93A      2.304188    94A      2.319693    95A      2.352244  
      96A      2.411709    97A      2.421501    98A      2.456200  
      99A      2.498690   100A      2.631780   101A      2.692201  
     102A      2.728884   103A      2.959569   104A      3.092625  
     105A      4.084745   106A      4.138339   107A      4.182955  
     108A      4.267930   109A      4.328675   110A      4.573657  

    Final Occupation by Irrep:
              A 
    DOCC [    23 ]

  @DF-RKS Final Energy:  -234.62177597530419

   => Energetics <=

    Nuclear Repulsion Energy =            223.8526196444036884
    One-Electron Energy =                -757.4739926273578021
    Two-Electron Energy =                 328.3078673975871311
    DFT Exchange-Correlation Energy =     -29.3082703899371921
    Empirical Dispersion Energy =           0.0000000000000000
    VV10 Nonlocal Energy =                  0.0000000000000000
    Total Energy =                       -234.6217759753041605

Computation Completed


Properties will be evaluated at   0.000000,   0.000000,   0.000000 [a0]

Properties computed using the SCF density matrix

  Nuclear Dipole Moment: [e a0]
     X:    -1.6890      Y:    -1.8135      Z:     0.2734

  Electronic Dipole Moment: [e a0]
     X:     1.5250      Y:     1.6404      Z:    -0.2566

  Dipole Moment: [e a0]
     X:    -0.1640      Y:    -0.1731      Z:     0.0169     Total:     0.2390

  Dipole Moment: [D]
     X:    -0.4168      Y:    -0.4399      Z:     0.0429     Total:     0.6075


*** tstop() called on chemcompute-node-0.novalocal at Mon Oct  3 02:21:38 2022
Module time:
	user time   =      13.92 seconds =       0.23 minutes
	system time =       0.15 seconds =       0.00 minutes
	total time  =         14 seconds =       0.23 minutes
Total time:
	user time   =      32.76 seconds =       0.55 minutes
	system time =       1.13 seconds =       0.02 minutes
	total time  =         34 seconds =       0.57 minutes

*** tstart() called on chemcompute-node-0.novalocal
*** at Mon Oct  3 02:21:38 2022


         ------------------------------------------------------------
                                   SCF GRAD                          
                          Rob Parrish, Justin Turney,                
                       Andy Simmonett, and Alex Sokolov              
         ------------------------------------------------------------

  ==> Geometry <==

    Molecular point group: c1
    Full point group: C1

    Geometry (in Angstrom), charge = 0, multiplicity = 1:

       Center              X                  Y                   Z               Mass       
    ------------   -----------------  -----------------  -----------------  -----------------
         C           -1.819143586396     0.123168802780     0.564072878375    12.000000000000
         C           -0.460585348648     0.589688590037     0.069926620799    12.000000000000
         C            0.606989451017    -0.435036896784    -0.081535026399    12.000000000000
         C           -0.268671170409     1.885243349206    -0.236789916452    12.000000000000
         C            0.177910786242    -1.861658635646    -0.378080342891    12.000000000000
         C            1.913548360025    -0.144738847992     0.053145676650    12.000000000000
         H           -2.318410892860    -0.535106990055    -0.171280468262     1.007825032230
         H           -2.477540262402     0.983100871383     0.745656141877     1.007825032230
         H           -1.743583139111    -0.443406911859     1.506162336841     1.007825032230
         H            0.664979921673     2.257527629213    -0.661595664166     1.007825032230
         H           -1.057640527503     2.618061796607    -0.086862067729     1.007825032230
         H           -0.379415711588    -2.307313720617     0.465126157520     1.007825032230
         H            1.051571204313    -2.494421263907    -0.572755136581     1.007825032230
         H           -0.478104519230    -1.919137988332    -1.260676587848     1.007825032230
         H            2.674011872508    -0.907470068539    -0.094279442343     1.007825032230
         H            2.270083562367     0.848500284505     0.330764840609     1.007825032230

  Nuclear repulsion =  223.852619644403688

  ==> Basis Set <==

  Basis Set: 6-31G*
    Blend: 6-31G*
    Number of shells: 56
    Number of basis functions: 110
    Number of Cartesian functions: 110
    Spherical Harmonics?: false
    Max angular momentum: 2

  ==> DFJKGrad: Density-Fitted SCF Gradients <==

    Gradient:                    1
    J tasked:                  Yes
    K tasked:                  Yes
    wK tasked:                  No
    OpenMP threads:              1
    Integrals threads:           1
    Memory [MiB]:             1430
    Schwarz Cutoff:          1E-12
    Fitting Condition:       1E-10

   => Auxiliary Basis Set <=

  Basis Set: (6-31G* AUX)
    Blend: CC-PVDZ-JKFIT
    Number of shells: 234
    Number of basis functions: 736
    Number of Cartesian functions: 736
    Spherical Harmonics?: false
    Max angular momentum: 3

  ==> DFT Potential <==

   => LibXC <=

    Version 5.1.5
    S. Lehtola, C. Steigemann, M. J. Oliveira, and M. A. Marques, SoftwareX 7, 1 (2018) (10.1016/j.softx.2017.11.002)

   => Composite Functional: B3LYP <= 

    B3LYP Hyb-GGA Exchange-Correlation Functional

    P. J. Stephens, F. J. Devlin, C. F. Chabalowski, and M. J. Frisch, J. Phys. Chem. 98, 11623 (1994) (10.1021/j100096a001)

    Deriv               =              1
    GGA                 =           TRUE
    Meta                =          FALSE

    Exchange Hybrid     =           TRUE
    MP2 Hybrid          =          FALSE

   => Exchange Functionals <=

    0.0800   Slater exchange
    0.7200         Becke 88

   => Exact (HF) Exchange <=

    0.2000               HF 

   => Correlation Functionals <=

    0.1900   Vosko, Wilk & Nusair (VWN5_RPA)
    0.8100   Lee, Yang & Parr

   => LibXC Density Thresholds  <==

    XC_HYB_GGA_XC_B3LYP:  1.00E-15 

   => Molecular Quadrature <=

    Radial Scheme          =       TREUTLER
    Pruning Scheme         =           NONE
    Nuclear Scheme         =       TREUTLER

    BS radius alpha        =              1
    Pruning alpha          =              1
    Radial Points          =             75
    Spherical Points       =            302
    Total Points           =         337779
    Total Blocks           =           2514
    Max Points             =            256
    Max Functions          =            108
    Weights Tolerance      =       1.00E-15


  -Total Gradient:
     Atom            X                  Y                   Z
    ------   -----------------  -----------------  -----------------
       1        0.001624097722     0.000314004756    -0.000505350607
       2        0.002678041934    -0.003086105711    -0.000645488518
       3       -0.003547670525     0.002688878110     0.001040771817
       4       -0.002217357107     0.001620466453     0.001285900636
       5        0.001130565468     0.000927794858     0.000235321714
       6        0.001705827057    -0.002381779054    -0.001393216951
       7       -0.002785659605    -0.002827294132    -0.003780672062
       8       -0.001123110704     0.002419071607     0.001058731230
       9       -0.000207550817    -0.000974197228     0.002770097692
      10        0.002684802796     0.002090187702    -0.001651786580
      11       -0.000286961485     0.000042933886     0.000259218858
      12       -0.002013495401    -0.002289084442     0.003444839875
      13        0.001245428115    -0.000598792246    -0.000902303247
      14       -0.000979347932    -0.000623540803    -0.002061346906
      15        0.000018202421    -0.000280716946    -0.000199028144
      16        0.002061629199     0.002943430881     0.001046035408


*** tstop() called on chemcompute-node-0.novalocal at Mon Oct  3 02:21:42 2022
Module time:
	user time   =       3.68 seconds =       0.06 minutes
	system time =       0.01 seconds =       0.00 minutes
	total time  =          4 seconds =       0.07 minutes
Total time:
	user time   =      36.44 seconds =       0.61 minutes
	system time =       1.14 seconds =       0.02 minutes
	total time  =         38 seconds =       0.63 minutes

			-----------------------------------------
			 OPTKING 2.0: for geometry optimizations 
			  - R.A. King,  Bethel University        
			-----------------------------------------

	Previous internal coordinate definitions found.
	---Fragment 1 Geometry and Gradient---
	 C          -3.4376831612        0.2327553045        1.0659432549
	 C          -0.8703801663        1.1143499345        0.1321421622
	 C           1.1470438235       -0.8221005894       -0.1540788695
	 C          -0.5077149299        3.5625936098       -0.4474680914
	 C           0.3362026608       -3.5180249605       -0.7144683015
	 C           3.6160823283       -0.2735167824        0.1004307736
	 H          -4.3811616338       -1.0112056590       -0.3236731757
	 H          -4.6818725607        1.8577914006        1.4090858919
	 H          -3.2948946099       -0.8379176255        2.8462343171
	 H           1.2566299309        4.2661089399       -1.2502346111
	 H          -1.9986509362        4.9474197751       -0.1641455187
	 H          -0.7169917826       -4.3601910175        0.8789610515
	 H           1.9871815776       -4.7137730303       -1.0823503451
	 H          -0.9034866007       -3.6266451949       -2.3823334838
	 H           5.0531500953       -1.7148698966       -0.1781623253
	 H           4.2898362148        1.6034331551        0.6250549607
	             0.0016240977        0.0003140048       -0.0005053506
	             0.0026780419       -0.0030861057       -0.0006454885
	            -0.0035476705        0.0026888781        0.0010407718
	            -0.0022173571        0.0016204665        0.0012859006
	             0.0011305655        0.0009277949        0.0002353217
	             0.0017058271       -0.0023817791       -0.0013932170
	            -0.0027856596       -0.0028272941       -0.0037806721
	            -0.0011231107        0.0024190716        0.0010587312
	            -0.0002075508       -0.0009741972        0.0027700977
	             0.0026848028        0.0020901877       -0.0016517866
	            -0.0002869615        0.0000429339        0.0002592189
	            -0.0020134954       -0.0022890844        0.0034448399
	             0.0012454281       -0.0005987922       -0.0009023032
	            -0.0009793479       -0.0006235408       -0.0020613469
	             0.0000182024       -0.0002807169       -0.0001990281
	             0.0020616292        0.0029434309        0.0010460354

	---Fragment 1 Intrafragment Coordinates---
	 - Coordinate -           - BOHR/RAD -       - ANG/DEG -
	 R(1,2)           =         2.870582	       1.519046
	 R(1,7)           =         2.090125	       1.106047
	 R(1,8)           =         2.075210	       1.098154
	 R(1,9)           =         2.082346	       1.101930
	 R(2,3)           =         2.811007	       1.487521
	 R(2,4)           =         2.541923	       1.345128
	 R(3,5)           =         2.870454	       1.518979
	 R(3,6)           =         2.542021	       1.345180
	 R(4,10)          =         2.062106	       1.091219
	 R(4,11)          =         2.054484	       1.087186
	 R(5,12)          =         2.087458	       1.104635
	 R(5,13)          =         2.071444	       1.096161
	 R(5,14)          =         2.080962	       1.101198
	 R(6,15)          =         2.054331	       1.087105
	 R(6,16)          =         2.062066	       1.091198
	 B(1,2,3)         =         2.052648	     117.608072
	 B(1,2,4)         =         2.091592	     119.839396
	 B(2,1,7)         =         1.950036	     111.728828
	 B(2,1,8)         =         1.927838	     110.456970
	 B(2,1,9)         =         1.954864	     112.005461
	 B(2,3,5)         =         2.053463	     117.654774
	 B(2,3,6)         =         2.139123	     122.562738
	 B(2,4,10)        =         2.140556	     122.644813
	 B(2,4,11)        =         2.110902	     120.945753
	 B(3,2,4)         =         2.138718	     122.539517
	 B(3,5,12)        =         1.952398	     111.864178
	 B(3,5,13)        =         1.930168	     110.590490
	 B(3,5,14)        =         1.953873	     111.948669
	 B(3,6,15)        =         2.111169	     120.961102
	 B(3,6,16)        =         2.140357	     122.633401
	 B(5,3,6)         =         2.090473	     119.775262
	 B(7,1,8)         =         1.881105	     107.779390
	 B(7,1,9)         =         1.868525	     107.058597
	 B(8,1,9)         =         1.877977	     107.600163
	 B(10,4,11)       =         2.031562	     116.399930
	 B(12,5,13)       =         1.880526	     107.746219
	 B(12,5,14)       =         1.865210	     106.868686
	 B(13,5,14)       =         1.877937	     107.597854
	 B(15,6,16)       =         2.031491	     116.395858
	 D(1,2,3,5)       =         0.489695	      28.057466
	 D(1,2,3,6)       =        -2.634772	    -150.961344
	 D(1,2,4,10)      =        -3.064321	    -175.572674
	 D(1,2,4,11)      =         0.056986	       3.265038
	 D(2,3,5,12)      =        -1.151394	     -65.970036
	 D(2,3,5,13)      =         3.035559	     173.924746
	 D(2,3,5,14)      =         0.941627	      53.951231
	 D(2,3,6,15)      =        -3.107250	    -178.032294
	 D(2,3,6,16)      =         0.054771	       3.138160
	 D(3,2,1,7)       =        -1.164544	     -66.723464
	 D(3,2,1,8)       =         3.024826	     173.309757
	 D(3,2,1,9)       =         0.931771	      53.386559
	 D(3,2,4,10)      =         0.053808	       3.082969
	 D(3,2,4,11)      =        -3.108070	    -178.079319
	 D(4,2,1,7)       =         1.954727	     111.997604
	 D(4,2,1,8)       =        -0.139088	      -7.969175
	 D(4,2,1,9)       =        -2.232143	    -127.892373
	 D(4,2,3,5)       =        -2.628930	    -150.626574
	 D(4,2,3,6)       =         0.529788	      30.354616
	 D(5,3,6,15)      =         0.051819	       2.968998
	 D(5,3,6,16)      =        -3.069346	    -175.860548
	 D(6,3,5,12)      =         1.973570	     113.077238
	 D(6,3,5,13)      =        -0.122661	      -7.027980
	 D(6,3,5,14)      =        -2.216594	    -127.001496

	Current energy   :      -234.6217759753

	Energy change for the previous step:
		Projected    :        -0.0033134842
		Actual       :        -0.0018749749

	Performing BFGS update.
	Previous computed or guess Hessian on step 1.
	Steps to be used in Hessian update: 1
	Taking RFO optimization step.
	Going to follow RFO solution 1.
	Using RFO vector 1.
	Norm of target step-size    0.33085
	Projected energy change by RFO approximation:        -0.0008700653

	Back-transformation to cartesian coordinates...
	Could not converge backtransformation.
	Using first guess instead.

	--- Internal Coordinate Step in ANG or DEG, aJ/ANG or AJ/DEG ---
	 ---------------------------------------------------------------------------
	   Coordinate                Previous        Force       Change         New 
	   ----------                --------       ------       ------       ------
	    1 R(1,2)          =      1.519046    -0.019804     0.000568     1.519614
	    2 R(1,7)          =      1.106047    -0.044932     0.000663     1.106710
	    3 R(1,8)          =      1.098154    -0.022600    -0.001967     1.096187
	    4 R(1,9)          =      1.101930    -0.023507     0.003044     1.104974
	    5 R(2,3)          =      1.487521     0.005449     0.003499     1.491020
	    6 R(2,4)          =      1.345128    -0.030226    -0.001790     1.343338
	    7 R(3,5)          =      1.518979    -0.020235     0.000348     1.519327
	    8 R(3,6)          =      1.345180    -0.030369    -0.001722     1.343458
	    9 R(4,10)         =      1.091219    -0.030110    -0.001217     1.090002
	   10 R(4,11)         =      1.087186    -0.002247     0.000851     1.088037
	   11 R(5,12)         =      1.104635    -0.037641    -0.000110     1.104525
	   12 R(5,13)         =      1.096161    -0.012349     0.000103     1.096264
	   13 R(5,14)         =      1.101198    -0.018674     0.002284     1.103482
	   14 R(6,15)         =      1.087105    -0.001947     0.000779     1.087884
	   15 R(6,16)         =      1.091198    -0.029828    -0.001027     1.090172
	   16 B(1,2,3)        =    117.608072     0.000013    -0.052383   117.555689
	   17 B(1,2,4)        =    119.839396     0.000142     0.720015   120.559411
	   18 B(2,1,7)        =    111.728828    -0.000034    -0.104020   111.624808
	   19 B(2,1,8)        =    110.456970     0.000070    -0.151262   110.305707
	   20 B(2,1,9)        =    112.005461    -0.000043     0.008556   112.014018
	   21 B(2,3,5)        =    117.654774    -0.000002    -0.137118   117.517656
	   22 B(2,3,6)        =    122.562738    -0.000158    -0.686875   121.875863
	   23 B(2,4,10)       =    122.644813    -0.000112    -0.465580   122.179233
	   24 B(2,4,11)       =    120.945753     0.000074     0.216583   121.162336
	   25 B(3,2,4)        =    122.539517    -0.000154    -0.660838   121.878679
	   26 B(3,5,12)       =    111.864178    -0.000053    -0.154055   111.710123
	   27 B(3,5,13)       =    110.590490     0.000047    -0.266958   110.323532
	   28 B(3,5,14)       =    111.948669    -0.000044     0.022295   111.970963
	   29 B(3,6,15)       =    120.961102     0.000071     0.197378   121.158480
	   30 B(3,6,16)       =    122.633401    -0.000109    -0.433423   122.199979
	   31 B(5,3,6)        =    119.775262     0.000160     0.824488   120.599750
	   32 B(7,1,8)        =    107.779390    -0.000016     0.208267   107.987657
	   33 B(7,1,9)        =    107.058597    -0.000012    -0.632981   106.425616
	   34 B(8,1,9)        =    107.600163     0.000035     0.695110   108.295273
	   35 B(10,4,11)      =    116.399930     0.000038     0.250503   116.650432
	   36 B(12,5,13)      =    107.746219     0.000001     0.250955   107.997174
	   37 B(12,5,14)      =    106.868686     0.000009    -0.458144   106.410543
	   38 B(13,5,14)      =    107.597854     0.000043     0.639518   108.237372
	   39 B(15,6,16)      =    116.395858     0.000038     0.236421   116.632280
	   40 D(1,2,3,5)      =     28.057466     0.000021     8.258312    36.315777
	   41 D(1,2,3,6)      =   -150.961344     0.000021     8.216019  -142.745325
	   42 D(1,2,4,10)     =   -175.572674    -0.000004    -0.152702  -175.725376
	   43 D(1,2,4,11)     =      3.265038    -0.000003    -0.053968     3.211070
	   44 D(2,3,5,12)     =    -65.970036     0.000007     2.714560   -63.255476
	   45 D(2,3,5,13)     =    173.924746     0.000008     2.680475   176.605221
	   46 D(2,3,5,14)     =     53.951231    -0.000005     2.037414    55.988645
	   47 D(2,3,6,15)     =   -178.032294    -0.000002     0.198600  -177.833694
	   48 D(2,3,6,16)     =      3.138160    -0.000003     0.172780     3.310940
	   49 D(3,2,1,7)      =    -66.723464     0.000009     3.159351   -63.564113
	   50 D(3,2,1,8)      =    173.309757     0.000008     3.066996   176.376753
	   51 D(3,2,1,9)      =     53.386559    -0.000007     2.283551    55.670110
	   52 D(3,2,4,10)     =      3.082969    -0.000003     0.261978     3.344947
	   53 D(3,2,4,11)     =   -178.079319    -0.000002     0.360711  -177.718608
	   54 D(4,2,1,7)      =    111.997604     0.000010     3.547821   115.545424
	   55 D(4,2,1,8)      =     -7.969175     0.000009     3.455466    -4.513710
	   56 D(4,2,1,9)      =   -127.892373    -0.000006     2.672021  -125.220352
	   57 D(4,2,3,5)      =   -150.626574     0.000019     7.845330  -142.781245
	   58 D(4,2,3,6)      =     30.354616     0.000019     7.803037    38.157653
	   59 D(5,3,6,15)     =      2.968998    -0.000002     0.164704     3.133702
	   60 D(5,3,6,16)     =   -175.860548    -0.000003     0.138884  -175.721664
	   61 D(6,3,5,12)     =    113.077238     0.000007     2.740989   115.818227
	   62 D(6,3,5,13)     =     -7.027980     0.000007     2.706904    -4.321076
	   63 D(6,3,5,14)     =   -127.001496    -0.000006     2.063843  -124.937653
	 ---------------------------------------------------------------------------
	Successfully symmetrized geometry.

  ==> Convergence Check <==

  Measures of convergence in internal coordinates in au.
  Criteria marked as inactive (o), active & met (*), and active & unmet ( ).
  ---------------------------------------------------------------------------------------------
   Step     Total Energy     Delta E     MAX Force     RMS Force      MAX Disp      RMS Disp   
  ---------------------------------------------------------------------------------------------
    Convergence Criteria    1.00e-06 *    3.00e-04 *             o    1.20e-03 *             o
  ---------------------------------------------------------------------------------------------
      2    -234.62177598   -1.87e-03      5.45e-03      1.66e-03 o    1.44e-01      4.16e-02 o  ~
  ---------------------------------------------------------------------------------------------

	Writing optimization data to binary file.
	Structure for next step:
	Cartesian Geometry (in Angstrom)
	    C    -1.7959271117   0.1366043076   0.6508011860
	    C    -0.4669489142   0.5855375303   0.0664177541
	    C     0.6038311787  -0.4415028715  -0.0810893758
	    C    -0.2846932236   1.8603964746  -0.3157784682
	    C     0.1790536467  -1.8477653680  -0.4688313041
	    C     1.8979249283  -0.1534715459   0.1362548134
	    H    -2.2962326890  -0.6074277145   0.0020195987
	    H    -2.4699592739   0.9934447442   0.7653915695
	    H    -1.6731575956  -0.3427105567   1.6388058080
	    H     0.6322983265   2.1957196102  -0.8003298916
	    H    -1.0609202666   2.6085904176  -0.1691440583
	    H    -0.4634079628  -2.3079007823   0.3028518936
	    H     1.0588403564  -2.4879214686  -0.6028839467
	    H    -0.4027064012  -1.8595657108  -1.4064283383
	    H     2.6733381842  -0.9026476898  -0.0085254219
	    H     2.2246668240   0.8276206305   0.4814681808
			--------------------------
			 OPTKING Finished Execution 
			--------------------------

    Structure for next step:
    Molecular point group: c1
    Full point group: C1

    Geometry (in Angstrom), charge = 0, multiplicity = 1:

    C           -1.795927118721     0.136604308116     0.650801188579
    C           -0.466948916000     0.585537532604     0.066417754371
    C            0.603831181096    -0.441502873245    -0.081089376168
    C           -0.284693224688     1.860396481952    -0.315778469440
    C            0.179053647431    -1.847765375269    -0.468831305935
    C            1.897924935774    -0.153471546532     0.136254813977
    H           -2.296232697980    -0.607427716862     0.002019598730
    H           -2.469959283588     0.993444748071     0.765391572479
    H           -1.673157602162    -0.342710558034     1.638805814456
    H            0.632298328996     2.195719618842    -0.800329894732
    H           -1.060920270725     2.608590427849    -0.169144058938
    H           -0.463407964580    -2.307900791344     0.302851894751
    H            1.058840360577    -2.487921478401    -0.602883949022
    H           -0.402706402795    -1.859565718148    -1.406428343873
    H            2.673338194668    -0.902647693375    -0.008525421949
    H            2.224666832696     0.827620633775     0.481468182714


Scratch directory: /scratch/
gradient() will perform analytic gradient computation.

*** tstart() called on chemcompute-node-0.novalocal
*** at Mon Oct  3 02:21:42 2022

   => Loading Basis Set <=

    Name: 6-31G*
    Role: ORBITAL
    Keyword: BASIS
    atoms 1-6  entry C          line   111 file /usr/local/share/psi4/basis/6-31gs.gbs 
    atoms 7-16 entry H          line    44 file /usr/local/share/psi4/basis/6-31gs.gbs 


         ---------------------------------------------------------
                                   SCF
               by Justin Turney, Rob Parrish, Andy Simmonett
                          and Daniel G. A. Smith
                              RKS Reference
                        1 Threads,   1907 MiB Core
         ---------------------------------------------------------

  ==> Geometry <==

    Molecular point group: c1
    Full point group: C1

    Geometry (in Angstrom), charge = 0, multiplicity = 1:

       Center              X                  Y                   Z               Mass       
    ------------   -----------------  -----------------  -----------------  -----------------
         C           -1.795927118721     0.136604308116     0.650801188579    12.000000000000
         C           -0.466948916000     0.585537532604     0.066417754371    12.000000000000
         C            0.603831181096    -0.441502873245    -0.081089376168    12.000000000000
         C           -0.284693224688     1.860396481952    -0.315778469440    12.000000000000
         C            0.179053647431    -1.847765375269    -0.468831305935    12.000000000000
         C            1.897924935774    -0.153471546532     0.136254813977    12.000000000000
         H           -2.296232697980    -0.607427716862     0.002019598730     1.007825032230
         H           -2.469959283588     0.993444748071     0.765391572479     1.007825032230
         H           -1.673157602162    -0.342710558034     1.638805814456     1.007825032230
         H            0.632298328996     2.195719618842    -0.800329894732     1.007825032230
         H           -1.060920270725     2.608590427849    -0.169144058938     1.007825032230
         H           -0.463407964580    -2.307900791344     0.302851894751     1.007825032230
         H            1.058840360577    -2.487921478401    -0.602883949022     1.007825032230
         H           -0.402706402795    -1.859565718148    -1.406428343873     1.007825032230
         H            2.673338194668    -0.902647693375    -0.008525421949     1.007825032230
         H            2.224666832696     0.827620633775     0.481468182714     1.007825032230

  Running in c1 symmetry.

  Rotational constants: A =      0.15763  B =      0.10438  C =      0.06979 [cm^-1]
  Rotational constants: A =   4725.76623  B =   3129.25726  C =   2092.21606 [MHz]
  Nuclear repulsion =  223.742466006542145

  Charge       = 0
  Multiplicity = 1
  Electrons    = 46
  Nalpha       = 23
  Nbeta        = 23

  ==> Algorithm <==

  SCF Algorithm Type is DF.
  DIIS enabled.
  MOM disabled.
  Fractional occupation disabled.
  Guess Type is READ.
  Energy threshold   = 1.00e-08
  Density threshold  = 1.00e-08
  Integral threshold = 1.00e-12

  ==> Primary Basis <==

  Basis Set: 6-31G*
    Blend: 6-31G*
    Number of shells: 56
    Number of basis functions: 110
    Number of Cartesian functions: 110
    Spherical Harmonics?: false
    Max angular momentum: 2

  ==> DFT Potential <==

   => LibXC <=

    Version 5.1.5
    S. Lehtola, C. Steigemann, M. J. Oliveira, and M. A. Marques, SoftwareX 7, 1 (2018) (10.1016/j.softx.2017.11.002)

   => Composite Functional: B3LYP <= 

    B3LYP Hyb-GGA Exchange-Correlation Functional

    P. J. Stephens, F. J. Devlin, C. F. Chabalowski, and M. J. Frisch, J. Phys. Chem. 98, 11623 (1994) (10.1021/j100096a001)

    Deriv               =              1
    GGA                 =           TRUE
    Meta                =          FALSE

    Exchange Hybrid     =           TRUE
    MP2 Hybrid          =          FALSE

   => Exchange Functionals <=

    0.0800   Slater exchange
    0.7200         Becke 88

   => Exact (HF) Exchange <=

    0.2000               HF 

   => Correlation Functionals <=

    0.1900   Vosko, Wilk & Nusair (VWN5_RPA)
    0.8100   Lee, Yang & Parr

   => LibXC Density Thresholds  <==

    XC_HYB_GGA_XC_B3LYP:  1.00E-15 

   => Molecular Quadrature <=

    Radial Scheme          =       TREUTLER
    Pruning Scheme         =           NONE
    Nuclear Scheme         =       TREUTLER

    BS radius alpha        =              1
    Pruning alpha          =              1
    Radial Points          =             75
    Spherical Points       =            302
    Total Points           =         337930
    Total Blocks           =           2510
    Max Points             =            256
    Max Functions          =            108
    Weights Tolerance      =       1.00E-15

   => Loading Basis Set <=

    Name: (6-31G* AUX)
    Role: JKFIT
    Keyword: DF_BASIS_SCF
    atoms 1-6  entry C          line   121 file /usr/local/share/psi4/basis/cc-pvdz-jkfit.gbs 
    atoms 7-16 entry H          line    51 file /usr/local/share/psi4/basis/cc-pvdz-jkfit.gbs 

   => Loading Basis Set <=

    Name: 6-31G*
    Role: ORBITAL
    Keyword: BASIS
    atoms 1-6  entry C          line   111 file /usr/local/share/psi4/basis/6-31gs.gbs 
    atoms 7-16 entry H          line    44 file /usr/local/share/psi4/basis/6-31gs.gbs 

  Reading orbitals from file /scratch/Psi4.12.180.npy, no projection.

  ==> Integral Setup <==

  DFHelper Memory: AOs need 0.073 GiB; user supplied 0.540 GiB. Using in-core AOs.

  ==> MemDFJK: Density-Fitted J/K Matrices <==

    J tasked:                   Yes
    K tasked:                   Yes
    wK tasked:                   No
    OpenMP threads:               1
    Memory [MiB]:               552
    Algorithm:                 Core
    Schwarz Cutoff:           1E-12
    Mask sparsity (%):       0.8926
    Fitting Condition:        1E-10

   => Auxiliary Basis Set <=

  Basis Set: (6-31G* AUX)
    Blend: CC-PVDZ-JKFIT
    Number of shells: 234
    Number of basis functions: 736
    Number of Cartesian functions: 736
    Spherical Harmonics?: false
    Max angular momentum: 3

  Cached 100.0% of DFT collocation blocks in 0.857 [GiB].

  Minimum eigenvalue in the overlap matrix is 2.8386797384E-03.
  Reciprocal condition number of the overlap matrix is 3.9101415164E-04.
    Using symmetric orthogonalization.

  ==> Pre-Iterations <==

  SCF Guess: Orbitals guess was supplied from a previous computation.

   -------------------------------------------------------
    Irrep   Nso     Nmo     Nalpha   Nbeta   Ndocc  Nsocc
   -------------------------------------------------------
     A        110     110      23      23      23       0
   -------------------------------------------------------
    Total     110     110      23      23      23       0
   -------------------------------------------------------

  ==> Iterations <==

                           Total Energy        Delta E     RMS |[F,P]|

   @DF-RKS iter   0:  -234.60430390646226   -2.34604e+02   1.43071e-03 
   @DF-RKS iter   1:  -234.62210695425259   -1.78030e-02   1.60064e-04 DIIS
   @DF-RKS iter   2:  -234.62203225224351    7.47020e-05   2.27033e-04 DIIS
   @DF-RKS iter   3:  -234.62235379867823   -3.21546e-04   5.61465e-05 DIIS
   @DF-RKS iter   4:  -234.62237136186454   -1.75632e-05   1.95727e-05 DIIS
   @DF-RKS iter   5:  -234.62237386115319   -2.49929e-06   2.37484e-06 DIIS
   @DF-RKS iter   6:  -234.62237390040906   -3.92559e-08   7.96665e-07 DIIS
   @DF-RKS iter   7:  -234.62237390360502   -3.19596e-09   4.19549e-07 DIIS
   @DF-RKS iter   8:  -234.62237390477500   -1.16998e-09   6.84329e-08 DIIS
   @DF-RKS iter   9:  -234.62237390480354   -2.85354e-11   2.44156e-08 DIIS
   @DF-RKS iter  10:  -234.62237390480743   -3.89377e-12   4.16509e-09 DIIS
  Energy and wave function converged.


  ==> Post-Iterations <==

   Electrons on quadrature grid:
      Ntotal   =   46.0000175943 ; deviation = 1.759e-05 

    Orbital Energies [Eh]
    ---------------------

    Doubly Occupied:                                                      

       1A    -10.195308     2A    -10.195028     3A    -10.183187  
       4A    -10.182794     5A    -10.173093     6A    -10.173058  
       7A     -0.820076     8A     -0.749750     9A     -0.692466  
      10A     -0.665943    11A     -0.586817    12A     -0.495443  
      13A     -0.469721    14A     -0.440302    15A     -0.423887  
      16A     -0.411184    17A     -0.400202    18A     -0.383832  
      19A     -0.373772    20A     -0.349488    21A     -0.330232  
      22A     -0.276215    23A     -0.223808  

    Virtual:                                                              

      24A     -0.008456    25A      0.065278    26A      0.095263  
      27A      0.132073    28A      0.135188    29A      0.151364  
      30A      0.151630    31A      0.162447    32A      0.170707  
      33A      0.188774    34A      0.214741    35A      0.220389  
      36A      0.249781    37A      0.260926    38A      0.346886  
      39A      0.367949    40A      0.407198    41A      0.497610  
      42A      0.524839    43A      0.528973    44A      0.541717  
      45A      0.555973    46A      0.584816    47A      0.627235  
      48A      0.639557    49A      0.668608    50A      0.672719  
      51A      0.686994    52A      0.714200    53A      0.718281  
      54A      0.735946    55A      0.783701    56A      0.815070  
      57A      0.837889    58A      0.859503    59A      0.866963  
      60A      0.889669    61A      0.903397    62A      0.923155  
      63A      0.946478    64A      0.959348    65A      0.969047  
      66A      1.009870    67A      1.014991    68A      1.063704  
      69A      1.153606    70A      1.164707    71A      1.187092  
[...]
     16   H                0.02  0.04 -0.14   -0.02 -0.03  0.10    0.32 -0.04  0.06   

  Vibration                       28                  29                  30          
  Freq [cm^-1]                1330.3376           1431.3426           1442.2979       
  Irrep                           A                   A                   A           
  Reduced mass [u]              3.3383              1.1964              1.2508        
  Force const [mDyne/A]         3.4810              1.4441              1.5330        
  Turning point v=0 [a0]        0.1647              0.2652              0.2583        
  RMS dev v=0 [a0 u^1/2]        0.2127              0.2051              0.2043        
  Char temp [K]               1914.0596           2059.3833           2075.1456       
  ----------------------------------------------------------------------------------
      1   C               -0.08  0.04  0.02   -0.08 -0.01  0.03   -0.09 -0.02  0.04   
      2   C                0.27 -0.05 -0.11   -0.00 -0.04  0.01    0.02 -0.02 -0.00   
      3   C               -0.04  0.28  0.08    0.04  0.00  0.01   -0.02  0.02  0.00   
      4   C               -0.08 -0.03  0.04   -0.00 -0.00  0.00   -0.01 -0.00  0.00   
      5   C                0.03 -0.08 -0.02    0.01  0.08  0.02   -0.02 -0.09 -0.03   
      6   C               -0.03 -0.09 -0.03    0.00  0.00  0.00   -0.00 -0.01 -0.00   
      7   H                0.00 -0.07  0.09    0.29 -0.05 -0.22    0.30 -0.00 -0.29   
      8   H               -0.28 -0.13  0.14    0.24  0.23 -0.12    0.24  0.23 -0.14   
      9   H               -0.06 -0.10 -0.03    0.35  0.02 -0.02    0.40  0.07  0.00   
     10   H                0.08 -0.47  0.12   -0.07  0.21 -0.03   -0.03  0.07 -0.01   
     11   H                0.06  0.09 -0.03    0.14  0.17 -0.11    0.07  0.08 -0.05   
     12   H               -0.07 -0.01 -0.08    0.03 -0.31 -0.19    0.02  0.33  0.26   
     13   H               -0.14 -0.30 -0.09   -0.24 -0.25 -0.07    0.24  0.25  0.08   
     14   H               -0.09 -0.06  0.05   -0.01 -0.35  0.02    0.06  0.40 -0.05   
     15   H                0.09  0.06  0.01   -0.17 -0.15 -0.07    0.09  0.07  0.04   
     16   H               -0.48  0.07 -0.07   -0.21  0.07 -0.01    0.07 -0.03  0.00   

  Vibration                       31                  32                  33          
  Freq [cm^-1]                1460.1010           1472.7750           1507.9588       
  Irrep                           A                   A                   A           
  Reduced mass [u]              1.2691              1.2291              1.0445        
  Force const [mDyne/A]         1.5941              1.5707              1.3994        
  Turning point v=0 [a0]        0.2549              0.2579              0.2765        
  RMS dev v=0 [a0 u^1/2]        0.2031              0.2022              0.1998        
  Char temp [K]               2100.7603           2118.9953           2169.6170       
  ----------------------------------------------------------------------------------
      1   C                0.05  0.04 -0.03    0.01  0.03 -0.01   -0.02  0.01 -0.03   
      2   C               -0.04 -0.07  0.03    0.02 -0.09  0.02   -0.00  0.00 -0.01   
      3   C                0.07  0.05  0.02   -0.09  0.02 -0.01   -0.00  0.00 -0.01   
      4   C                0.01 -0.01 -0.00   -0.01 -0.00  0.00    0.00  0.01 -0.00   
      5   C               -0.04 -0.05 -0.02    0.03  0.01  0.00   -0.01  0.01 -0.03   
      6   C                0.01 -0.01 -0.00   -0.00 -0.01 -0.00   -0.01 -0.00 -0.00   
      7   H               -0.08 -0.08  0.21    0.01 -0.11  0.17    0.30 -0.30  0.11   
      8   H               -0.09 -0.08  0.04   -0.03 -0.01 -0.01    0.24  0.17  0.37   
      9   H               -0.18 -0.15 -0.06   -0.06 -0.18 -0.08   -0.28  0.01  0.02   
     10   H               -0.14  0.41 -0.07   -0.14  0.39 -0.06    0.02 -0.05  0.01   
     11   H                0.25  0.26 -0.17    0.28  0.32 -0.22   -0.04 -0.04  0.03   
     12   H                0.10  0.10  0.19   -0.13 -0.01 -0.15    0.31 -0.28  0.11   
     13   H                0.08  0.10  0.02   -0.01 -0.03  0.01   -0.12 -0.20  0.41   
     14   H                0.14  0.17 -0.10   -0.17 -0.06  0.11   -0.02  0.28 -0.01   
     15   H               -0.28 -0.27 -0.11    0.33  0.30  0.15    0.04  0.04  0.02   
     16   H               -0.42  0.13 -0.04    0.40 -0.13  0.03    0.05 -0.02  0.01   

  Vibration                       34                  35                  36          
  Freq [cm^-1]                1511.2324           1525.5048           1531.6260       
  Irrep                           A                   A                   A           
  Reduced mass [u]              1.0473              1.0517              1.0581        
  Force const [mDyne/A]         1.4092              1.4420              1.4625        
  Turning point v=0 [a0]        0.2758              0.2739              0.2726        
  RMS dev v=0 [a0 u^1/2]        0.1996              0.1987              0.1983        
  Char temp [K]               2174.3270           2194.8618           2203.6687       
  ----------------------------------------------------------------------------------
      1   C                0.01  0.01  0.04    0.01 -0.03 -0.02    0.02 -0.03  0.01   
      2   C                0.00  0.01  0.01   -0.00 -0.01 -0.00    0.01 -0.01  0.00   
      3   C                0.01  0.00 -0.01    0.01  0.00 -0.00   -0.01  0.01 -0.00   
      4   C                0.00  0.00 -0.00   -0.00 -0.02  0.01   -0.01 -0.02  0.01   
      5   C                0.01  0.00 -0.04    0.03 -0.01 -0.02   -0.03  0.02 -0.01   
      6   C                0.00  0.00  0.00    0.02  0.00  0.00   -0.02 -0.01 -0.01   
      7   H               -0.25  0.13  0.08    0.02  0.18 -0.28   -0.19  0.32 -0.26   
      8   H               -0.13 -0.05 -0.48   -0.10 -0.13  0.31   -0.24 -0.22  0.02   
      9   H                0.25 -0.28 -0.13   -0.05  0.45  0.18    0.11  0.33  0.13   
     10   H                0.02 -0.04  0.00   -0.05  0.11 -0.01   -0.06  0.13 -0.02   
     11   H               -0.04 -0.04  0.02    0.08  0.07 -0.05    0.11  0.10 -0.08   
     12   H                0.12 -0.26 -0.07   -0.21 -0.05 -0.25    0.35 -0.16  0.24   
     13   H                0.00 -0.07  0.49    0.16  0.13  0.28   -0.21 -0.24  0.03   
     14   H               -0.27  0.26  0.13   -0.43  0.07  0.23    0.31  0.09 -0.17   
     15   H               -0.04 -0.04 -0.01   -0.08 -0.09 -0.04    0.11  0.11  0.06   
     16   H               -0.04  0.02 -0.00   -0.11  0.05 -0.00    0.13 -0.06  0.01   

  Vibration                       37                  38                  39          
  Freq [cm^-1]                1696.9554           1722.3131           3036.3437       
  Irrep                           A                   A                   A           
  Reduced mass [u]              4.8246              4.7267              1.0381        
  Force const [mDyne/A]         8.1857              8.2610              5.6388        
  Turning point v=0 [a0]        0.1213              0.1216              0.1954        
  RMS dev v=0 [a0 u^1/2]        0.1883              0.1870              0.1408        
  Char temp [K]               2441.5410           2478.0251           4368.6226       
  ----------------------------------------------------------------------------------
      1   C               -0.02 -0.02  0.01    0.02  0.03 -0.01    0.03  0.02 -0.02   
      2   C                0.00  0.30 -0.10   -0.09 -0.28  0.10   -0.00  0.00 -0.00   
      3   C                0.31  0.02  0.07    0.29  0.10  0.06   -0.00  0.00 -0.00   
      4   C               -0.03 -0.25  0.10    0.05  0.25 -0.09    0.00  0.00 -0.00   
      5   C               -0.02 -0.02 -0.01   -0.03 -0.02 -0.01   -0.02 -0.03 -0.01   
      6   C               -0.26 -0.04 -0.06   -0.25 -0.06 -0.06   -0.00 -0.00 -0.00   
      7   H               -0.04 -0.08  0.11    0.06  0.07 -0.11   -0.21 -0.32 -0.26   
      8   H                0.11  0.09 -0.05   -0.10 -0.07  0.07   -0.16  0.23  0.01   
      9   H               -0.10 -0.10 -0.01    0.10  0.10  0.01    0.07 -0.17  0.43   
     10   H               -0.28  0.27 -0.02    0.25 -0.25 -0.05   -0.01 -0.00  0.00   
     11   H                0.32  0.08 -0.12   -0.31 -0.09  0.19    0.01 -0.01 -0.00   
     12   H               -0.09 -0.06 -0.09   -0.08 -0.08 -0.10    0.28  0.17 -0.31   
     13   H                0.09  0.11  0.03    0.08  0.11  0.05   -0.22  0.16  0.02   
     14   H               -0.09 -0.10  0.03   -0.10 -0.10  0.03    0.21 -0.02  0.40   
     15   H                0.08  0.33  0.07    0.11  0.33  0.15    0.01 -0.01 -0.00   
     16   H                0.27 -0.27  0.02    0.24 -0.25 -0.05    0.00  0.01  0.00   

  Vibration                       40                  41                  42          
  Freq [cm^-1]                3039.6559           3085.8757           3088.0470       
  Irrep                           A                   A                   A           
  Reduced mass [u]              1.0380              1.1001              1.0997        
  Force const [mDyne/A]         5.6505              6.1721              6.1788        
  Turning point v=0 [a0]        0.1953              0.1883              0.1883        
  RMS dev v=0 [a0 u^1/2]        0.1407              0.1397              0.1396        
  Char temp [K]               4373.3881           4439.8880           4443.0121       
  ----------------------------------------------------------------------------------
      1   C                0.02  0.02 -0.02   -0.02 -0.02 -0.06   -0.03 -0.01 -0.06   
      2   C                0.00 -0.00 -0.00   -0.00 -0.00 -0.00   -0.00 -0.00 -0.00   
      3   C                0.00  0.00  0.00    0.00  0.00 -0.00   -0.00 -0.00  0.00   
      4   C               -0.00  0.00 -0.00   -0.00 -0.00 -0.00    0.00 -0.00 -0.00   
      5   C                0.02  0.03  0.01    0.01  0.02 -0.06   -0.01 -0.02  0.06   
      6   C                0.00 -0.00  0.00    0.00  0.00 -0.00   -0.00  0.00  0.00   
      7   H               -0.18 -0.29 -0.23    0.23  0.37  0.27    0.23  0.37  0.28   
      8   H               -0.17  0.23  0.01   -0.02  0.01 -0.01    0.02 -0.03 -0.01   
      9   H                0.07 -0.18  0.45    0.06 -0.19  0.45    0.06 -0.18  0.42   
     10   H               -0.01 -0.00  0.00    0.00  0.00 -0.00    0.00 -0.00 -0.00   
     11   H                0.01 -0.01 -0.00   -0.00 -0.00 -0.00   -0.00  0.00  0.00   
     12   H               -0.26 -0.16  0.29   -0.32 -0.20  0.32    0.35  0.21 -0.35   
     13   H                0.24 -0.17 -0.02   -0.02  0.02 -0.01   -0.03  0.02  0.02   
     14   H               -0.23  0.02 -0.44    0.24 -0.01  0.42   -0.23  0.01 -0.41   
     15   H               -0.01  0.01  0.00    0.00 -0.00 -0.00    0.00 -0.00 -0.00   
     16   H               -0.00 -0.01 -0.00   -0.00 -0.00 -0.00   -0.00  0.00  0.00   

  Vibration                       43                  44                  45          
  Freq [cm^-1]                3128.3084           3129.9553           3161.7975       
  Irrep                           A                   A                   A           
  Reduced mass [u]              1.1001              1.1004              1.0605        
  Force const [mDyne/A]         6.3430              6.3515              6.2464        
  Turning point v=0 [a0]        0.1870              0.1870              0.1895        
  RMS dev v=0 [a0 u^1/2]        0.1387              0.1387              0.1380        
  Char temp [K]               4500.9393           4503.3088           4549.1227       
  ----------------------------------------------------------------------------------
      1   C                0.03 -0.06  0.00    0.03 -0.06  0.00   -0.00  0.00  0.00   
      2   C               -0.00 -0.00  0.00   -0.00 -0.00  0.00   -0.00 -0.01  0.00   
      3   C                0.00  0.00  0.00   -0.00 -0.00 -0.00    0.01  0.00  0.00   
      4   C               -0.00  0.00 -0.00   -0.00  0.00 -0.00    0.00  0.05 -0.01   
      5   C                0.06 -0.03  0.00   -0.06  0.03  0.00   -0.00  0.00  0.00   
      6   C               -0.00  0.00 -0.00    0.00 -0.00  0.00   -0.05 -0.00 -0.01   
      7   H                0.09  0.11  0.10    0.10  0.14  0.12    0.00  0.00 -0.00   
      8   H               -0.40  0.52  0.04   -0.39  0.51  0.04    0.02 -0.03 -0.00   
      9   H               -0.02  0.07 -0.20   -0.02  0.06 -0.18    0.00  0.00  0.00   
     10   H               -0.01 -0.00  0.00   -0.01 -0.00  0.01   -0.38 -0.10  0.20   
     11   H                0.02 -0.02 -0.00    0.03 -0.02 -0.00    0.39 -0.38 -0.04   
     12   H               -0.10 -0.07  0.12    0.12  0.09 -0.14   -0.00 -0.00 -0.00   
     13   H               -0.51  0.39  0.05    0.52 -0.39 -0.05    0.03 -0.02 -0.00   
     14   H               -0.09  0.00 -0.19    0.08 -0.00  0.17    0.00 -0.00  0.00   
     15   H                0.02 -0.02 -0.00   -0.02  0.03  0.00    0.39 -0.39 -0.04   
     16   H                0.00  0.01  0.00   -0.00 -0.01 -0.00    0.12  0.41  0.14   

  Vibration                       46                  47                  48          
  Freq [cm^-1]                3163.4488           3243.1977           3245.2888       
  Irrep                           A                   A                   A           
  Reduced mass [u]              1.0596              1.1156              1.1152        
  Force const [mDyne/A]         6.2478              6.9137              6.9203        
  Turning point v=0 [a0]        0.1895              0.1824              0.1824        
  RMS dev v=0 [a0 u^1/2]        0.1379              0.1362              0.1362        
  Char temp [K]               4551.4985           4666.2395           4669.2480       
  ----------------------------------------------------------------------------------
      1   C               -0.00  0.00  0.00    0.00 -0.00  0.00   -0.00  0.00 -0.00   
      2   C               -0.00 -0.00  0.00    0.00 -0.00 -0.00   -0.00  0.00  0.00   
      3   C               -0.00 -0.00 -0.00    0.00 -0.00 -0.00    0.00 -0.00 -0.00   
      4   C               -0.00  0.05 -0.01    0.06 -0.01 -0.02   -0.06  0.01  0.02   
      5   C                0.00 -0.00 -0.00    0.00 -0.00  0.00    0.00 -0.00  0.00   
      6   C                0.05  0.00  0.01    0.01 -0.07 -0.02    0.01 -0.07 -0.02   
      7   H                0.00 -0.00 -0.00    0.00  0.00  0.00    0.00 -0.00 -0.00   
      8   H                0.02 -0.03 -0.00   -0.01  0.01  0.00    0.01 -0.01 -0.00   
      9   H                0.00  0.00  0.00   -0.00  0.00 -0.00    0.00 -0.00  0.00   
     10   H               -0.38 -0.10  0.19   -0.47 -0.14  0.24    0.48  0.14 -0.25   
     11   H                0.39 -0.39 -0.04   -0.30  0.31  0.03    0.30 -0.31 -0.03   
     12   H                0.00  0.00  0.00   -0.00 -0.00  0.00   -0.00  0.00  0.00   
     13   H               -0.03  0.02  0.00   -0.01  0.01  0.00   -0.01  0.01  0.00   
     14   H                0.00  0.00 -0.00   -0.00  0.00 -0.00   -0.00  0.00 -0.00   
     15   H               -0.39  0.39  0.04   -0.32  0.30  0.03   -0.31  0.30  0.03   
     16   H               -0.11 -0.39 -0.14    0.16  0.50  0.18    0.16  0.50  0.18   

  ==> Thermochemistry Components <==

  Entropy, S
    Electronic S            0.000 [cal/(mol K)]        0.000 [J/(mol K)]       0.00000000 [mEh/K] (multiplicity = 1)
    Translational S        39.129 [cal/(mol K)]      163.717 [J/(mol K)]       0.06235649 [mEh/K] (mol. weight = 82.0783 [u], P = 101325.00 [Pa])
    Rotational S           26.732 [cal/(mol K)]      111.846 [J/(mol K)]       0.04259978 [mEh/K] (symmetry no. = 1)
    Vibrational S          15.996 [cal/(mol K)]       66.925 [J/(mol K)]       0.02549055 [mEh/K]
  Total S                  81.857 [cal/(mol K)]      342.488 [J/(mol K)]       0.13044682 [mEh/K]
  Correction S              0.000 [cal/(mol K)]        0.000 [J/(mol K)]       0.00000000 [mEh/K]

  Constant volume heat capacity, Cv
    Electronic Cv           0.000 [cal/(mol K)]        0.000 [J/(mol K)]       0.00000000 [mEh/K]
    Translational Cv        2.981 [cal/(mol K)]       12.472 [J/(mol K)]       0.00475022 [mEh/K]
    Rotational Cv           2.981 [cal/(mol K)]       12.472 [J/(mol K)]       0.00475022 [mEh/K]
    Vibrational Cv         20.562 [cal/(mol K)]       86.030 [J/(mol K)]       0.03276719 [mEh/K]
  Total Cv                 26.523 [cal/(mol K)]      110.974 [J/(mol K)]       0.04226762 [mEh/K]
  Correction Cv             0.000 [cal/(mol K)]        0.000 [J/(mol K)]       0.00000000 [mEh/K]

  Constant pressure heat capacity, Cp
    Electronic Cp           0.000 [cal/(mol K)]        0.000 [J/(mol K)]       0.00000000 [mEh/K]
    Translational Cp        4.968 [cal/(mol K)]       20.786 [J/(mol K)]       0.00791703 [mEh/K]
    Rotational Cp           2.981 [cal/(mol K)]       12.472 [J/(mol K)]       0.00475022 [mEh/K]
    Vibrational Cp         20.562 [cal/(mol K)]       86.030 [J/(mol K)]       0.03276719 [mEh/K]
  Total Cp                 28.511 [cal/(mol K)]      119.288 [J/(mol K)]       0.04543443 [mEh/K]
  Correction Cp             0.000 [cal/(mol K)]        0.000 [J/(mol K)]       0.00000000 [mEh/K]

  ==> Thermochemistry Energy Analysis <==

  Raw electronic energy, E0
  Total E0, Electronic energy at well bottom at 0 [K]                 -234.62277137 [Eh]

  Zero-point energy, ZPE_vib = Sum_i nu_i / 2
    Electronic ZPE          0.000 [kcal/mol]        0.000 [kJ/mol]       0.00000000 [Eh]
    Translational ZPE       0.000 [kcal/mol]        0.000 [kJ/mol]       0.00000000 [Eh]
    Rotational ZPE          0.000 [kcal/mol]        0.000 [kJ/mol]       0.00000000 [Eh]
    Vibrational ZPE        89.183 [kcal/mol]      373.143 [kJ/mol]       0.14212266 [Eh]       31192.318 [cm^-1]
  Correction ZPE           89.183 [kcal/mol]      373.143 [kJ/mol]       0.14212266 [Eh]       31192.318 [cm^-1]
  Total ZPE, Electronic energy at 0 [K]                               -234.48064871 [Eh]

  Thermal Energy, E (includes ZPE)
    Electronic E            0.000 [kcal/mol]        0.000 [kJ/mol]       0.00000000 [Eh]
    Translational E         0.889 [kcal/mol]        3.718 [kJ/mol]       0.00141628 [Eh]
    Rotational E            0.889 [kcal/mol]        3.718 [kJ/mol]       0.00141628 [Eh]
    Vibrational E          91.971 [kcal/mol]      384.806 [kJ/mol]       0.14656505 [Eh]
  Correction E             93.748 [kcal/mol]      392.243 [kJ/mol]       0.14939760 [Eh]
  Total E, Electronic energy at  298.15 [K]                           -234.47337376 [Eh]

  Enthalpy, H_trans = E_trans + k_B * T
    Electronic H            0.000 [kcal/mol]        0.000 [kJ/mol]       0.00000000 [Eh]
    Translational H         1.481 [kcal/mol]        6.197 [kJ/mol]       0.00236046 [Eh]
    Rotational H            0.889 [kcal/mol]        3.718 [kJ/mol]       0.00141628 [Eh]
    Vibrational H          91.971 [kcal/mol]      384.806 [kJ/mol]       0.14656505 [Eh]
  Correction H             94.341 [kcal/mol]      394.722 [kJ/mol]       0.15034179 [Eh]
  Total H, Enthalpy at  298.15 [K]                                    -234.47242958 [Eh]

  Gibbs free energy, G = H - T * S
    Electronic G            0.000 [kcal/mol]        0.000 [kJ/mol]       0.00000000 [Eh]
    Translational G       -10.185 [kcal/mol]      -42.615 [kJ/mol]      -0.01623113 [Eh]
    Rotational G           -7.081 [kcal/mol]      -29.628 [kJ/mol]      -0.01128485 [Eh]
    Vibrational G          87.202 [kcal/mol]      364.853 [kJ/mol]       0.13896504 [Eh]
  Correction G             69.935 [kcal/mol]      292.609 [kJ/mol]       0.11144907 [Eh]
  Total G, Free enthalpy at  298.15 [K]                               -234.51132230 [Eh]

    Psi4 stopped on: Monday, 03 October 2022 02:50AM
    Psi4 wall time for execution: 0:29:38.91

*** Psi4 exiting successfully. Buy a developer a beer!
